       200  EXT
         1         1  GLY       N              42.3750000000      -12.1800000000       24.7800000000  PROA      1              35.3100000000
         2         1  GLY       CA             43.6030000000      -11.4880000000       24.3250000000  PROA      1              35.5700000000
         3         1  GLY       C              43.2880000000      -10.1710000000       23.6150000000  PROA      1              34.6400000000
         4         1  GLY       O              42.1110000000       -9.8960000000       23.2770000000  PROA      1              35.8200000000
         5         2  ILE       N              44.3230000000       -9.3910000000       23.2990000000  PROA      2              32.2300000000
         6         2  ILE       CA             44.2000000000       -8.1830000000       22.4750000000  PROA      2              27.5500000000
         7         2  ILE       C              43.7500000000       -8.6290000000       21.1190000000  PROA      2              24.9200000000
         8         2  ILE       O              43.0680000000       -7.9040000000       20.4090000000  PROA      2              23.7300000000
         9         2  ILE       CB             45.5250000000       -7.3200000000       22.4250000000  PROA      2              30.1000000000
        10         2  ILE       CG1            45.9240000000       -6.8370000000       23.8200000000  PROA      2              29.6400000000
        11         2  ILE       CG2            45.5550000000       -6.1730000000       21.3860000000  PROA      2              30.5400000000
        12         2  ILE       CD             44.8370000000       -6.3380000000       24.7620000000  PROA      2              32.4400000000
        13         3  GLY       N              44.1610000000       -9.8670000000       20.7490000000  PROA      3              22.6900000000
        14         3  GLY       CA             43.9990000000      -10.2640000000       19.3290000000  PROA      3              21.0500000000
        15         3  GLY       C              42.4330000000      -10.4050000000       19.1660000000  PROA      3              22.0800000000
        16         3  GLY       O              41.9120000000      -10.0610000000       18.0960000000  PROA      3              22.8600000000
        17         4  ALA       N              41.8620000000      -10.9610000000       20.1910000000  PROA      4              21.6000000000
        18         4  ALA       CA             40.3780000000      -11.2600000000       20.1060000000  PROA      4              21.8000000000
        19         4  ALA       C              39.5840000000       -9.9500000000       20.0870000000  PROA      4              21.6700000000
        20         4  ALA       O              38.6760000000       -9.7470000000       19.2780000000  PROA      4              22.2100000000
        21         4  ALA       CB             40.0610000000      -12.0800000000       21.3500000000  PROA      4              22.9700000000
        22         5  VAL       N              39.9360000000       -9.0010000000       20.9560000000  PROA      5              22.1300000000
        23         5  VAL       CA             39.3550000000       -7.6580000000       21.0830000000  PROA      5              19.3400000000
        24         5  VAL       C              39.5360000000       -6.8960000000       19.7950000000  PROA      5              18.8100000000
        25         5  VAL       O              38.6260000000       -6.3140000000       19.1260000000  PROA      5              17.2200000000
        26         5  VAL       CB             39.8430000000       -6.9330000000       22.3380000000  PROA      5              20.4000000000
        27         5  VAL       CG1            39.2370000000       -5.5190000000       22.4130000000  PROA      5              23.0600000000
        28         5  VAL       CG2            39.7450000000       -7.5870000000       23.6530000000  PROA      5              21.6700000000
        29         6  LEU       N              40.7520000000       -7.0210000000       19.2220000000  PROA      6              16.0500000000
        30         6  LEU       CA             41.0620000000       -6.4320000000       17.9570000000  PROA      6              17.5900000000
        31         6  LEU       C              40.2300000000       -6.9350000000       16.8700000000  PROA      6              20.0100000000
        32         6  LEU       O              39.6490000000       -6.1210000000       16.0290000000  PROA      6              21.9000000000
        33         6  LEU       CB             42.6270000000       -6.4610000000       17.8800000000  PROA      6              24.5800000000
        34         6  LEU       CG             43.1250000000       -6.0230000000       16.5240000000  PROA      6              23.9100000000
        35         6  LEU       CD1            42.7060000000       -4.5840000000       16.2100000000  PROA      6              27.4400000000
        36         6  LEU       CD2            44.6690000000       -6.1520000000       16.6380000000  PROA      6              29.3100000000
        37         7  LYS       N              39.9810000000       -8.2290000000       16.7210000000  PROA      7              19.8300000000
        38         7  LYS       CA             39.0790000000       -8.6460000000       15.6360000000  PROA      7              22.5500000000
        39         7  LYS       C              37.6480000000       -8.0630000000       15.7840000000  PROA      7              19.0400000000
        40         7  LYS       O              37.0310000000       -7.8390000000       14.7310000000  PROA      7              21.1800000000
        41         7  LYS       CB             38.8540000000      -10.1760000000       15.6160000000  PROA      7              27.6200000000
        42         7  LYS       CG             40.0110000000      -10.9930000000       15.1440000000  PROA      7              40.1500000000
        43         7  LYS       CD             39.6910000000      -12.4870000000       15.3250000000  PROA      7              47.8400000000
        44         7  LYS       CE             40.5990000000      -13.3940000000       14.4930000000  PROA      7              53.1100000000
        45         7  LYS       NZ             39.9660000000      -14.7550000000       14.3190000000  PROA      7              55.4700000000
        46         8  VAL       N              37.1110000000       -7.9880000000       16.9810000000  PROA      8              19.6900000000
        47         8  VAL       CA             35.7920000000       -7.3690000000       17.2110000000  PROA      8              20.5200000000
        48         8  VAL       C              35.7760000000       -5.8810000000       16.8850000000  PROA      8              20.3100000000
        49         8  VAL       O              34.7750000000       -5.4020000000       16.2570000000  PROA      8              20.1200000000
        50         8  VAL       CB             35.1130000000       -7.6000000000       18.5620000000  PROA      8              23.0900000000
        51         8  VAL       CG1            34.7740000000       -9.0450000000       18.8510000000  PROA      8              24.2200000000
        52         8  VAL       CG2            35.7690000000       -6.9700000000       19.7260000000  PROA      8              27.9500000000
        53         9  LEU       N              36.8600000000       -5.1760000000       17.2160000000  PROA      9              19.5500000000
        54         9  LEU       CA             36.8990000000       -3.7590000000       16.7250000000  PROA      9              16.8300000000
        55         9  LEU       C              36.7780000000       -3.6440000000       15.2540000000  PROA      9              19.1100000000
        56         9  LEU       O              36.3280000000       -2.5510000000       14.6940000000  PROA      9              19.6900000000
        57         9  LEU       CB             38.2270000000       -3.0880000000       17.1470000000  PROA      9              16.5700000000
        58         9  LEU       CG             38.4620000000       -3.0910000000       18.6150000000  PROA      9              18.6900000000
        59         9  LEU       CD1            39.7830000000       -2.2880000000       18.8730000000  PROA      9              24.0900000000
        60         9  LEU       CD2            37.2650000000       -2.5350000000       19.3510000000  PROA      9              22.1700000000
        61        10  THR       N              37.3200000000       -4.6270000000       14.5300000000  PROA      10             19.3900000000
        62        10  THR       CA             37.3380000000       -4.5080000000       13.0840000000  PROA      10             19.4100000000
        63        10  THR       C              36.0720000000       -5.0220000000       12.4580000000  PROA      10             21.0800000000
        64        10  THR       O              35.6940000000       -4.5540000000       11.3330000000  PROA      10             21.4800000000
        65        10  THR       CB             38.6870000000       -5.1790000000       12.4860000000  PROA      10             24.0700000000
        66        10  THR       OG1            38.2850000000       -6.5380000000       12.3540000000  PROA      10             31.2000000000
        67        10  THR       CG2            39.8770000000       -5.0490000000       13.4510000000  PROA      10             20.7500000000
        68        11  THR       N              35.3150000000       -5.8700000000       13.1130000000  PROA      11             21.1200000000
        69        11  THR       CA             34.1320000000       -6.4050000000       12.3430000000  PROA      11             24.1400000000
        70        11  THR       C              32.8740000000       -6.2990000000       13.1400000000  PROA      11             24.1300000000
        71        11  THR       O              31.8230000000       -5.8890000000       12.6300000000  PROA      11             27.7800000000
        72        11  THR       CB             34.4620000000       -7.9250000000       11.9350000000  PROA      11             27.7800000000
        73        11  THR       OG1            34.7020000000       -8.5910000000       13.1990000000  PROA      11             31.2200000000
        74        11  THR       CG2            35.6950000000       -7.9590000000       11.0470000000  PROA      11             30.3100000000
        75        12  GLY       N              32.9180000000       -6.6060000000       14.4200000000  PROA      12             23.0000000000
        76        12  GLY       CA             31.5840000000       -6.5950000000       15.1400000000  PROA      12             24.1700000000
        77        12  GLY       C              31.2640000000       -5.1680000000       15.5840000000  PROA      12             24.4500000000
        78        12  GLY       O              30.0600000000       -4.9140000000       15.6030000000  PROA      12             23.7900000000
        79        13  LEU       N              32.1950000000       -4.2760000000       15.9480000000  PROA      13             22.0500000000
        80        13  LEU       CA             31.9230000000       -2.9190000000       16.3640000000  PROA      13             23.2400000000
        81        13  LEU       C              31.2510000000       -2.0040000000       15.3240000000  PROA      13             21.2400000000
        82        13  LEU       O              30.2320000000       -1.3080000000       15.6790000000  PROA      13             23.0200000000
        83        13  LEU       CB             33.1460000000       -2.1830000000       17.0080000000  PROA      13             25.5500000000
        84        13  LEU       CG             32.9130000000       -1.5230000000       18.3510000000  PROA      13             27.0100000000
        85        13  LEU       CD1            33.9990000000       -0.5170000000       18.7600000000  PROA      13             27.5300000000
        86        13  LEU       CD2            31.5870000000       -0.8420000000       18.5310000000  PROA      13             24.5400000000
        87        14  PRO       N              31.6890000000       -1.9790000000       14.1060000000  PROA      14             17.3800000000
        88        14  PRO       CA             31.0260000000       -1.2780000000       13.0300000000  PROA      14             17.5200000000
        89        14  PRO       C              29.5210000000       -1.6700000000       12.8570000000  PROA      14             18.9800000000
        90        14  PRO       O              28.6570000000       -0.8010000000       12.7440000000  PROA      14             16.7500000000
        91        14  PRO       CB             31.8450000000       -1.6140000000       11.8160000000  PROA      14             17.8000000000
        92        14  PRO       CG             33.1180000000       -2.2050000000       12.3030000000  PROA      14             18.0500000000
        93        14  PRO       CD             33.0980000000       -2.3630000000       13.7690000000  PROA      14             17.9600000000
        94        15  ALA       N              29.2070000000       -2.9520000000       12.8680000000  PROA      15             16.3900000000
        95        15  ALA       CA             27.8220000000       -3.4180000000       12.7240000000  PROA      15             17.1000000000
        96        15  ALA       C              27.0230000000       -3.0160000000       13.9510000000  PROA      15             16.9800000000
        97        15  ALA       O              25.8720000000       -2.5510000000       13.7690000000  PROA      15             16.7800000000
        98        15  ALA       CB             27.7410000000       -4.9060000000       12.5020000000  PROA      15             19.5800000000
        99        16  LEU       N              27.5700000000       -3.1170000000       15.1270000000  PROA      16             15.9700000000
       100        16  LEU       CA             26.9580000000       -2.6490000000       16.3510000000  PROA      16             18.2000000000
       101        16  LEU       C              26.6140000000       -1.1690000000       16.3440000000  PROA      16             20.2800000000
       102        16  LEU       O              25.5990000000       -0.7340000000       16.9330000000  PROA      16             18.3200000000
       103        16  LEU       CB             27.8110000000       -3.0270000000       17.5420000000  PROA      16             19.7000000000
       104        16  LEU       CG             27.3840000000       -2.5500000000       18.9210000000  PROA      16             22.2300000000
       105        16  LEU       CD1            26.0310000000       -3.2340000000       19.2570000000  PROA      16             27.8000000000
       106        16  LEU       CD2            28.4450000000       -2.9700000000       19.9330000000  PROA      16             21.9100000000
       107        17  ILE       N              27.5140000000       -0.3650000000       15.7910000000  PROA      17             20.9700000000
       108        17  ILE       CA             27.3430000000        1.0560000000       15.6180000000  PROA      17             20.4100000000
       109        17  ILE       C              26.0810000000        1.3920000000       14.7580000000  PROA      17             18.1700000000
       110        17  ILE       O              25.3800000000        2.2400000000       15.2820000000  PROA      17             16.4600000000
       111        17  ILE       CB             28.5790000000        1.8470000000       15.1320000000  PROA      17             21.1000000000
       112        17  ILE       CG1            29.5860000000        1.8580000000       16.3520000000  PROA      17             25.6600000000
       113        17  ILE       CG2            28.2680000000        3.2880000000       14.6910000000  PROA      17             22.0400000000
       114        17  ILE       CD             30.8560000000        2.6960000000       16.1610000000  PROA      17             27.0000000000
       115        18  SER       N              25.9300000000        0.7590000000       13.6570000000  PROA      18             16.9700000000
       116        18  SER       CA             24.8250000000        0.8270000000       12.7440000000  PROA      18             19.9800000000
       117        18  SER       C              23.4990000000        0.4050000000       13.4380000000  PROA      18             18.8900000000
       118        18  SER       O              22.5570000000        1.1650000000       13.3520000000  PROA      18             18.3700000000
       119        18  SER       CB             25.0760000000        0.0390000000       11.4910000000  PROA      18             20.3900000000
       120        18  SER       OG             23.9020000000        0.0460000000       10.6700000000  PROA      18             23.8700000000
       121        19  TRP       N              23.5120000000       -0.6610000000       14.1610000000  PROA      19             17.7100000000
       122        19  TRP       CA             22.4920000000       -1.0850000000       15.0810000000  PROA      19             15.7200000000
       123        19  TRP       C              22.0830000000        0.0040000000       16.0120000000  PROA      19             18.0200000000
       124        19  TRP       O              20.8200000000        0.2440000000       16.1600000000  PROA      19             16.9300000000
       125        19  TRP       CB             22.8540000000       -2.4100000000       15.7670000000  PROA      19             15.5900000000
       126        19  TRP       CG             21.8030000000       -2.9930000000       16.6780000000  PROA      19             17.9400000000
       127        19  TRP       CD1            20.9170000000       -3.9500000000       16.2100000000  PROA      19             18.0300000000
       128        19  TRP       CD2            21.4480000000       -2.7450000000       18.0410000000  PROA      19             16.0300000000
       129        19  TRP       NE1            20.0600000000       -4.3040000000       17.2220000000  PROA      19             21.2800000000
       130        19  TRP       CE2            20.3570000000       -3.6240000000       18.3720000000  PROA      19             20.4500000000
       131        19  TRP       CE3            21.8790000000       -1.8920000000       19.0480000000  PROA      19             14.4100000000
       132        19  TRP       CZ2            19.7840000000       -3.6900000000       19.6120000000  PROA      19             17.1500000000
       133        19  TRP       CZ3            21.2920000000       -1.9500000000       20.2880000000  PROA      19             17.2400000000
       134        19  TRP       CH2            20.2300000000       -2.8050000000       20.6010000000  PROA      19             15.1300000000
       135        20  ILE       N              22.9300000000        0.5940000000       16.8230000000  PROA      20             14.8200000000
       136        20  ILE       CA             22.6280000000        1.6330000000       17.7660000000  PROA      20             15.6700000000
       137        20  ILE       C              21.9170000000        2.8190000000       17.0800000000  PROA      20             17.5100000000
       138        20  ILE       O              20.9420000000        3.3650000000       17.6550000000  PROA      20             17.7000000000
       139        20  ILE       CB             23.9020000000        2.1920000000       18.4990000000  PROA      20             16.2500000000
       140        20  ILE       CG1            24.4810000000        0.9860000000       19.3630000000  PROA      20             15.5000000000
       141        20  ILE       CG2            23.5990000000        3.4210000000       19.3900000000  PROA      20             14.5400000000
       142        20  ILE       CD             26.0330000000        1.3040000000       19.6370000000  PROA      20             18.1800000000
       143        21  LYS       N              22.4640000000        3.1770000000       15.9570000000  PROA      21             16.6100000000
       144        21  LYS       CA             21.8880000000        4.2360000000       15.1570000000  PROA      21             19.8400000000
       145        21  LYS       C              20.4360000000        3.9100000000       14.7520000000  PROA      21             21.0200000000
       146        21  LYS       O              19.6850000000        4.8990000000       14.9710000000  PROA      21             22.8000000000
       147        21  LYS       CB             22.6990000000        4.6460000000       13.9350000000  PROA      21             16.7300000000
       148        21  LYS       CG             23.9440000000        5.4160000000       14.4710000000  PROA      21             22.1900000000
       149        21  LYS       CD             24.9190000000        5.6690000000       13.3000000000  PROA      21             25.8600000000
       150        21  LYS       CE             26.1730000000        6.2870000000       13.9080000000  PROA      21             32.9100000000
       151        21  LYS       NZ             27.1990000000        6.5640000000       12.8630000000  PROA      21             39.1100000000
       152        22  ARG       N              20.0750000000        2.7280000000       14.3510000000  PROA      22             19.1800000000
       153        22  ARG       CA             18.7400000000        2.2730000000       14.0200000000  PROA      22             20.3800000000
       154        22  ARG       C              17.8070000000        2.3650000000       15.1770000000  PROA      22             22.4600000000
       155        22  ARG       O              16.6480000000        2.8990000000       15.0960000000  PROA      22             23.2400000000
       156        22  ARG       CB             18.7330000000        0.8600000000       13.4180000000  PROA      22             22.7300000000
       157        22  ARG       CG             19.3090000000        0.9560000000       12.0040000000  PROA      22             22.2900000000
       158        22  ARG       CD             19.1170000000       -0.3000000000       11.2540000000  PROA      22             25.7800000000
       159        22  ARG       NE             19.3820000000       -1.5620000000       11.9910000000  PROA      22             28.9400000000
       160        22  ARG       CZ             20.6240000000       -2.1040000000       11.8890000000  PROA      22             33.7700000000
       161        22  ARG       NH1            21.6640000000       -1.5540000000       11.2520000000  PROA      22             31.2100000000
       162        22  ARG       NH2            20.8700000000       -3.2710000000       12.4980000000  PROA      22             33.1100000000
       163        23  LYS       N              18.2570000000        1.9370000000       16.3230000000  PROA      23             20.4900000000
       164        23  LYS       CA             17.5000000000        1.9280000000       17.5500000000  PROA      23             22.6200000000
       165        23  LYS       C              17.2160000000        3.3610000000       18.1000000000  PROA      23             25.4700000000
       166        23  LYS       O              16.2040000000        3.5540000000       18.8110000000  PROA      23             24.6200000000
       167        23  LYS       CB             18.2570000000        1.1280000000       18.5890000000  PROA      23             24.1600000000
       168        23  LYS       CG             17.9790000000       -0.3880000000       18.4630000000  PROA      23             31.0300000000
       169        23  LYS       CD             16.8580000000       -0.6570000000       19.5140000000  PROA      23             38.5200000000
       170        23  LYS       CE             16.1970000000       -1.9860000000       19.2780000000  PROA      23             44.0500000000
       171        23  LYS       NZ             15.4120000000       -2.4930000000       20.4770000000  PROA      23             48.3000000000
       172        24  ARG       N              18.1550000000        4.2680000000       17.8440000000  PROA      24             23.9900000000
       173        24  ARG       CA             18.0590000000        5.6740000000       18.2760000000  PROA      24             27.1100000000
       174        24  ARG       C              16.9960000000        6.3550000000       17.4410000000  PROA      24             28.3400000000
       175        24  ARG       O              16.2240000000        7.1660000000       18.0290000000  PROA      24             31.8200000000
       176        24  ARG       CB             19.4460000000        6.3790000000       18.1880000000  PROA      24             22.2400000000
       177        24  ARG       CG             20.1820000000        6.2360000000       19.5420000000  PROA      24             20.0100000000
       178        24  ARG       CD             21.5770000000        6.7420000000       19.4330000000  PROA      24             25.0000000000
       179        24  ARG       NE             21.7150000000        8.1150000000       18.9500000000  PROA      24             24.2400000000
       180        24  ARG       CZ             21.7450000000        9.1360000000       19.8370000000  PROA      24             22.7200000000
       181        24  ARG       NH1            21.5080000000        8.8480000000       21.0860000000  PROA      24             24.1000000000
       182        24  ARG       NH2            22.1340000000       10.3750000000       19.5120000000  PROA      24             24.0900000000
       183        25  GLN       N              16.8890000000        6.0800000000       16.1920000000  PROA      25             29.9000000000
       184        25  GLN       CA             15.8360000000        6.7300000000       15.3390000000  PROA      25             37.5000000000
       185        25  GLN       C              14.4630000000        6.1620000000       15.5540000000  PROA      25             39.9200000000
       186        25  GLN       O              13.4350000000        6.7990000000       15.2270000000  PROA      25             42.3900000000
       187        25  GLN       CB             16.2830000000        6.7130000000       13.8740000000  PROA      25             40.8200000000
       188        25  GLN       CG             17.6070000000        7.5050000000       13.8000000000  PROA      25             46.9100000000
       189        25  GLN       CD             18.4130000000        7.2050000000       12.5640000000  PROA      25             50.8900000000
       190        25  GLN       OE1            19.5960000000        7.5590000000       12.4770000000  PROA      25             54.2300000000
       191        25  GLN       NE2            17.7570000000        6.5120000000       11.6240000000  PROA      25             51.6100000000
       192        26  GLN       N              14.3630000000        4.9450000000       16.0640000000  PROA      26             43.0600000000
       193        26  GLN       CA             13.1320000000        4.3600000000       16.5830000000  PROA      26             46.6600000000
       194        26  GLN       C              12.6180000000        5.0710000000       17.8370000000  PROA      26             48.0000000000
       195        26  GLN       O              11.4090000000        5.3440000000       17.5970000000  PROA      26             50.8500000000
       196        26  GLN       CB             13.1440000000        2.8740000000       16.8620000000  PROA      26             49.1400000000
       197        26  GLN       CG             13.1660000000        1.9720000000       15.6250000000  PROA      26             54.4900000000
       198        26  GLN       CD             13.5060000000        0.5510000000       16.1160000000  PROA      26             58.1000000000
       199        26  GLN       OE1            13.0830000000        0.1800000000       17.2390000000  PROA      26             59.2700000000
       200        26  GLN       NE2            14.3040000000       -0.1170000000       15.2900000000  PROA      26             57.6100000000
