* GENERATED BY CHARMM-GUI (HTTP://WWW.CHARMM-GUI.ORG) V3.7 ON DEC, 01. 2025. JOB
* GENERATES ION CONFORMATION USING MONTE-CARLO SIMULATION
*  DATE:    12/ 1/25      8: 4:48      CREATED BY USER: charmm-gui
*
        36  EXT
         1         1  SOD       SOD             2.1351325000        2.2329853400      -28.1128929000  IONS      1               1.0000000000
         2         2  SOD       SOD             6.1132741926       -6.7542630928       30.9621824943  IONS      2               1.0000000000
         3         3  SOD       SOD            -7.9420928200       29.9591689000      -36.8549453000  IONS      3               1.0000000000
         4         4  SOD       SOD           -26.9592676000        9.0870232800      -30.1818611000  IONS      4               1.0000000000
         5         5  SOD       SOD           -20.2409619802       -9.6135839981      -26.2525824188  IONS      5               1.0000000000
         6         6  SOD       SOD           -23.0841068000       23.7775694000      -27.4699618000  IONS      6               1.0000000000
         7         7  SOD       SOD            22.7809420000       -7.9189946500       27.1779543000  IONS      7               1.0000000000
         8         8  SOD       SOD           -11.3425915000      -19.3107559000       27.2384404000  IONS      8               1.0000000000
         9         9  SOD       SOD           -26.7333220000      -17.1839800000      -31.2589256000  IONS      9               1.0000000000
        10        10  SOD       SOD             7.9747134800      -10.5226278000       40.7494656000  IONS      10              1.0000000000
        11        11  SOD       SOD             3.5277752000        6.6603352600      -21.1860316000  IONS      11              1.0000000000
        12        12  SOD       SOD           -11.2269614000      -17.3567214000      -27.3107226000  IONS      12              1.0000000000
        13        13  CLA       CLA            -4.9928986600        8.1993019500       22.5224098000  IONS      13             -1.0000000000
        14        14  CLA       CLA           -27.0704685000       10.6944944000       27.3587305000  IONS      14             -1.0000000000
        15        15  CLA       CLA            -1.3378670400       -5.0588052300       34.2574346000  IONS      15             -1.0000000000
        16        16  CLA       CLA             3.2131186800       27.7350172000       40.1718953000  IONS      16             -1.0000000000
        17        17  CLA       CLA            19.8893266400      -25.5347761051       26.8527559912  IONS      17             -1.0000000000
        18        18  CLA       CLA            -2.2831548704      -15.9375980958       41.2264173171  IONS      18             -1.0000000000
        19        19  CLA       CLA             8.2489731256      -16.0222250182       30.5408831206  IONS      19             -1.0000000000
        20        20  CLA       CLA            17.6673133000       18.3464476000      -41.2403079000  IONS      20             -1.0000000000
        21        21  CLA       CLA           -27.5816152000       18.8083129000      -25.1060802000  IONS      21             -1.0000000000
        22        22  CLA       CLA            -2.0664468900        5.7871643800      -27.3663769000  IONS      22             -1.0000000000
        23        23  CLA       CLA            -6.2124377600      -21.7101458000      -34.0617337000  IONS      23             -1.0000000000
        24        24  CLA       CLA           -23.4051622000       11.4048548000      -41.4428088000  IONS      24             -1.0000000000
        25        25  CLA       CLA           -29.0070045000        3.6474954300      -34.5787223000  IONS      25             -1.0000000000
        26        26  CLA       CLA            -4.3173565200       -8.0783125200       30.4676472000  IONS      26             -1.0000000000
        27        27  CLA       CLA            15.3033370000        7.0530088100       34.1390967000  IONS      27             -1.0000000000
        28        28  CLA       CLA             0.6791010134      -24.5601224760      -36.0611602591  IONS      28             -1.0000000000
        29        29  CLA       CLA           -11.7569111000        7.3582946600      -27.2183638000  IONS      29             -1.0000000000
        30        30  CLA       CLA            25.4049512000        6.0480344700       38.1071775000  IONS      30             -1.0000000000
        31        31  CLA       CLA           -29.1706390136       -0.3643718655      -24.6108115251  IONS      31             -1.0000000000
        32        32  CLA       CLA           -24.4109114003      -19.0670609812      -37.1279536068  IONS      32             -1.0000000000
        33        33  CLA       CLA           -26.3229112000      -21.5436845000      -33.7005130000  IONS      33             -1.0000000000
        34        34  CLA       CLA            27.8869037000       -4.5335937700       33.2256301000  IONS      34             -1.0000000000
        35        35  CLA       CLA           -25.0177432000       10.3833827000       39.7585545000  IONS      35             -1.0000000000
        36        36  CLA       CLA            -6.5642883897       -2.8776960390       31.3042951122  IONS      36             -1.0000000000
