* CALC TOPAREA = 436.519425
* CALC BOTAREA = 396.273754
* CALC XMAX = 11.4588244
* CALC XMIN = -11.4588244
* CALC YMAX = 16.1840875
* CALC YMIN = -16.1840875
* CALC ZMAX = 16.4166004
* CALC ZMIN = -18.0983996
*  DATE:    12/ 1/25      8: 0:20      CREATED BY USER: charmm-gui
*
       872  EXT
         1         1  GLY       N              -9.1948266101       -8.7925828890       12.8676003732  PROA      1               0.0000000000
         2         1  GLY       HT1           -10.0497009238       -9.3255489207       13.1259356530  PROA      1               0.0000000000
         3         1  GLY       HT2            -8.5861020586       -9.3838996983       12.2664360966  PROA      1               0.0000000000
         4         1  GLY       HT3            -9.4657259936       -7.9337450370       12.3473978124  PROA      1               0.0000000000
         5         1  GLY       CA             -8.4581013073       -8.4142644672       14.0956003732  PROA      1               0.0064986403
         6         1  GLY       HA1            -8.1899862515       -9.3230103656       14.6138727141  PROA      1               0.0073876218
         7         1  GLY       HA2            -9.1169988650       -7.8136147682       14.7050139912  PROA      1               0.0116660646
         8         1  GLY       C              -7.1917188527       -7.6174806330       13.7806003732  PROA      1               0.0000000000
         9         1  GLY       O              -6.7621305629       -7.5445224170       12.6036003732  PROA      1               0.0000000000
        10         2  ILE       N              -6.5326564512       -7.0941329943       14.8156003732  PROA      2               0.0247572030
        11         2  ILE       HN             -6.9108126859       -7.1195277597       15.7372984674  PROA      2               0.0389923129
        12         2  ILE       CA             -5.2207101938       -6.4483489610       14.6926003732  PROA      2               0.0228748912
        13         2  ILE       HA             -5.2900245336       -5.7298808175       13.8896378297  PROA      2               0.0000000000
        14         2  ILE       CB             -4.7523146970       -5.7217991288       16.0176003732  PROA      2               0.0455213191
        15         2  ILE       HB             -4.8943373463       -6.4282244227       16.8618509053  PROA      2               0.0614129276
        16         2  ILE       CG2            -3.2832614633       -5.2349597337       16.0476003732  PROA      2               0.0457195750
        17         2  ILE       HG21           -3.1056548994       -4.5064214817       15.2278388690  PROA      2               0.0326596660
        18         2  ILE       HG22           -2.5962611841       -6.0972635789       15.9107910331  PROA      2               0.0514210363
        19         2  ILE       HG23           -3.0697386092       -4.7367189730       17.0173520094  PROA      2               0.0612269084
        20         2  ILE       CG1            -5.7287480597       -4.6145991071       16.4166003732  PROA      2               0.0479681771
        21         2  ILE       HG11           -5.2022154485       -3.9583463954       17.1394014439  PROA      2               0.0608814440
        22         2  ILE       HG12           -6.5855448468       -5.1013377552       16.9258452593  PROA      2               0.0613863534
        23         2  ILE       CD             -6.3030073887       -3.7164948686       15.3296003732  PROA      2               0.0362222720
        24         2  ILE       HD1            -6.8667422428       -4.3246223787       14.5902053869  PROA      2               0.0063246546
        25         2  ILE       HD2            -5.4803578290       -3.1888205985       14.8013374960  PROA      2               0.0158913590
        26         2  ILE       HD3            -6.9957006990       -2.9736273091       15.7796868842  PROA      2               0.0484978766
        27         2  ILE       C              -4.2600069624       -7.5041431177       14.2426003732  PROA      2               0.0107520556
        28         2  ILE       O              -3.2850798079       -7.2226434846       13.5606003732  PROA      2               0.0000000000
        29         3  GLY       N              -4.5474503866       -8.7638733578       14.6536003732  PROA      3               0.0202677233
        30         3  GLY       HN             -5.4179249683       -9.0314169038       15.0591336632  PROA      3               0.0000000000
        31         3  GLY       CA             -3.5069169212       -9.8085259829       14.4916003732  PROA      3               0.0179101960
        32         3  GLY       HA1            -3.8090187182      -10.7163222284       14.9905762733  PROA      3               0.0239167611
        33         3  GLY       HA2            -2.5645258512       -9.4604225908       14.8853764105  PROA      3               0.0195585957
        34         3  GLY       C              -3.4344572464      -10.0115028179       12.9256003732  PROA      3               0.0000000000
        35         3  GLY       O              -2.3337567083      -10.2388666793       12.4046003732  PROA      3               0.0000000000
        36         4  ALA       N              -4.6003617280       -9.9908209483       12.3546003732  PROA      4               0.0000000000
        37         4  ALA       HN             -5.4511902201       -9.7882184643       12.8329011245  PROA      4               0.0000000000
        38         4  ALA       CA             -4.6735812848      -10.2929217535       10.8706003732  PROA      4               0.0000000000
        39         4  ALA       HA             -4.1600850176      -11.2206826070       10.6674521531  PROA      4               0.0000000000
        40         4  ALA       CB             -6.1600794139      -10.3942100163       10.5536003732  PROA      4               0.0000000000
        41         4  ALA       HB1            -6.6680354358       -9.4359869368       10.7946609667  PROA      4               0.0000000000
        42         4  ALA       HB2            -6.6217662613      -11.2026854222       11.1597908332  PROA      4               0.0000000000
        43         4  ALA       HB3            -6.3024903692      -10.6090773372        9.4729499880  PROA      4               0.0000000000
        44         4  ALA       C              -4.0121001311       -9.1620355155       10.0766003732  PROA      4               0.0000000000
        45         4  ALA       O              -3.2079948191       -9.3836311996        9.1686003732  PROA      4               0.0000000000
        46         5  VAL       N              -4.3012739335       -7.9081852406       10.4286003732  PROA      5               0.0000000000
        47         5  VAL       HN             -4.9560243443       -7.7433942665       11.1596309420  PROA      5               0.0000000000
        48         5  VAL       CA             -3.7506263413       -6.6766962113        9.8476003732  PROA      5               0.0000000000
        49         5  VAL       HA             -3.8329546360       -6.7564048685        8.7738947775  PROA      5               0.0000000000
        50         5  VAL       CB             -4.4860597533       -5.4277816039       10.3356003732  PROA      5               0.0000000000
        51         5  VAL       HB             -4.4274777053       -5.3749875150       11.4436801037  PROA      5               0.0000000000
        52         5  VAL       CG1            -3.8551957679       -4.1600940904        9.7296003732  PROA      5               0.0000000000
        53         5  VAL       HG11           -3.9144792143       -4.1967571046        8.6207891646  PROA      5               0.0000000000
        54         5  VAL       HG12           -2.7866086341       -4.0909576724       10.0255662389  PROA      5               0.0000000000
        55         5  VAL       HG13           -4.4006567023       -3.2596152881       10.0843740988  PROA      5               0.0000000000
        56         5  VAL       CG2            -5.9526315284       -5.3496264483       10.2376003732  PROA      5               0.0000000000
        57         5  VAL       HG21           -6.4132981592       -6.2649066534       10.6669829550  PROA      5               0.0000000000
        58         5  VAL       HG22           -6.2565055473       -5.2659265611        9.1722792900  PROA      5               0.0000000000
        59         5  VAL       HG23           -6.3229100297       -4.4676560229       10.8026455935  PROA      5               0.0000000000
        60         5  VAL       C              -2.2543848044       -6.6475540918       10.0286003732  PROA      5               0.0000000000
        61         5  VAL       O              -1.3855467718       -6.4703381977        9.1186003732  PROA      5               0.0000000000
        62         6  LEU       N              -1.8171788335       -7.0384568150       11.2446003732  PROA      6               0.0000000000
        63         6  LEU       HN             -2.4471911672       -7.2682257335       11.9821199661  PROA      6               0.0000000000
        64         6  LEU       CA             -0.4261286877       -7.1485726262       11.5546003732  PROA      6               0.0000000000
        65         6  LEU       HA              0.0994154195       -6.2869809931       11.1712373540  PROA      6               0.0000000000
        66         6  LEU       CB             -0.3733842961       -7.2117234707       13.1196003732  PROA      6               0.0000000000
        67         6  LEU       HB1            -1.0567274779       -8.0125363379       13.4739323611  PROA      6               0.0000000000
        68         6  LEU       HB2            -0.7143633632       -6.2391722742       13.5339525856  PROA      6               0.0000000000
        69         6  LEU       CG              1.0225325929       -7.4980729755       13.6176003732  PROA      6               0.0000000000
        70         6  LEU       HG              1.3646584849       -8.4697036620       13.2020055040  PROA      6               0.0000000000
        71         6  LEU       CD1             2.0042951201       -6.4001388517       13.1986003732  PROA      6               0.0000000000
        72         6  LEU       HD11            1.5933030879       -5.4011009322       13.4580802084  PROA      6               0.0000000000
        73         6  LEU       HD12            2.1711755873       -6.4408382489       12.1009899827  PROA      6               0.0000000000
        74         6  LEU       HD13            2.9710348350       -6.5346875463       13.7292274297  PROA      6               0.0000000000
        75         6  LEU       CD2             0.8597958823       -7.5542313501       15.1616003732  PROA      6               0.0331577353
        76         6  LEU       HD21            0.1454619826       -8.3578750449       15.4412517480  PROA      6               0.0395158041
        77         6  LEU       HD22            0.4672449197       -6.5846950719       15.5359761841  PROA      6               0.0421466479
        78         6  LEU       HD23            1.8402286744       -7.7697397382       15.6375854313  PROA      6               0.0448306399
        79         6  LEU       C               0.2723711616       -8.1215453702       10.7226003732  PROA      6               0.0000000000
        80         6  LEU       O               1.4051391135       -7.8270733561       10.1416003732  PROA      6               0.0000000000
        81         7  LYS       N              -0.2350035216       -9.3212152960       10.4736003732  PROA      7               0.0000000000
        82         7  LYS       HN             -1.0907262449       -9.6535804049       10.8622769977  PROA      7               0.0000000000
        83         7  LYS       CA              0.5040952928      -10.2183479186        9.5716003732  PROA      7               0.0000000000
        84         7  LYS       HA              1.4728732657      -10.3996076993       10.0127125961  PROA      7               0.0000000000
        85         7  LYS       CB             -0.2317508646      -11.5599255096        9.3466003732  PROA      7               0.0000000000
        86         7  LYS       HB1             0.2426071686      -12.0711949879        8.4829714374  PROA      7               0.0000000000
        87         7  LYS       HB2            -1.2891905235      -11.3337786423        9.0957101099  PROA      7               0.0000000000
        88         7  LYS       CG             -0.2231441708      -12.5034290468       10.5036003732  PROA      7               0.0000000000
        89         7  LYS       HG1            -0.6056667080      -11.9866030896       11.4095690777  PROA      7               0.0000000000
        90         7  LYS       HG2             0.8155286890      -12.8464179370       10.6978403452  PROA      7               0.0000000000
        91         7  LYS       CD             -1.1162196080      -13.7147148361       10.1836003732  PROA      7               0.0000000000
        92         7  LYS       HD1            -0.9429778123      -14.0175093009        9.1292066404  PROA      7               0.0000000000
        93         7  LYS       HD2            -2.1792802072      -13.4157834941       10.3018609623  PROA      7               0.0000000000
        94         7  LYS       CE             -0.8385734963      -14.9137918298       11.0916003732  PROA      7               0.0000000000
        95         7  LYS       HE1            -1.3522328721      -14.7798502387       12.0674793858  PROA      7               0.0000000000
        96         7  LYS       HE2             0.2552890344      -15.0279317986       11.2483261943  PROA      7               0.0000000000
        97         7  LYS       NZ             -1.3571735174      -16.1840874718       10.4586003732  PROA      7               0.0000000000
        98         7  LYS       HZ1            -0.8842933124      -16.3346664093        9.5446472588  PROA      7               0.0000000000
        99         7  LYS       HZ2            -2.3831405146      -16.1029985000       10.3088808508  PROA      7               0.0000000000
       100         7  LYS       HZ3            -1.1616083183      -16.9894065450       11.0869434953  PROA      7               0.0000000000
       101         7  LYS       C               0.6622986344       -9.6380336049        8.1406003732  PROA      7               0.0000000000
       102         7  LYS       O               1.6891233829       -9.9614774731        7.5236003732  PROA      7               0.0000000000
       103         8  VAL       N              -0.3426608949       -8.9834418661        7.6036003732  PROA      8               0.0000000000
       104         8  VAL       HN             -1.2226181296       -8.8977187481        8.0640371511  PROA      8               0.0000000000
       105         8  VAL       CA             -0.2381077453       -8.3314222046        6.2846003732  PROA      8               0.0000000000
       106         8  VAL       HA              0.2508946995       -9.0434382544        5.6381517827  PROA      8               0.0000000000
       107         8  VAL       CB             -1.5277616814       -7.8673589275        5.6056003732  PROA      8               0.0000000000
       108         8  VAL       HB             -1.2583009075       -7.3403999499        4.6661493189  PROA      8               0.0000000000
       109         8  VAL       CG1            -2.4907178349       -8.9828236049        5.2666003732  PROA      8               0.0000000000
       110         8  VAL       HG11           -2.9321833088       -9.4017618156        6.1960733481  PROA      8               0.0000000000
       111         8  VAL       HG12           -1.9547795665       -9.7953141455        4.7309854046  PROA      8               0.0000000000
       112         8  VAL       HG13           -3.3120910865       -8.5924263789        4.6284858942  PROA      8               0.0000000000
       113         8  VAL       CG2            -2.2307582542       -6.7459349138        6.2616003732  PROA      8               0.0000000000
       114         8  VAL       HG21           -1.5200207881       -5.9167137176        6.4654764680  PROA      8               0.0000000000
       115         8  VAL       HG22           -2.6663131204       -7.0848846837        7.2257886913  PROA      8               0.0000000000
       116         8  VAL       HG23           -3.0379782252       -6.3664319008        5.5993107973  PROA      8               0.0000000000
       117         8  VAL       C               0.7782235658       -7.1967457459        6.2686003732  PROA      8               0.0000000000
       118         8  VAL       O               1.5606654022       -7.0889970907        5.2676003732  PROA      8               0.0000000000
       119         9  LEU       N               0.8372048429       -6.4201459719        7.3526003732  PROA      9               0.0000000000
       120         9  LEU       HN              0.1987602248       -6.4563346710        8.1167308567  PROA      9               0.0000000000
       121         9  LEU       CA              1.9621992738       -5.4285021194        7.3916003732  PROA      9               0.0000000000
       122         9  LEU       HA              1.8521493330       -4.7602762729        6.5504385643  PROA      9               0.0000000000
       123         9  LEU       CB              1.9252340263       -4.6366949645        8.7196003732  PROA      9               0.0000000000
       124         9  LEU       HB1             2.7508868307       -3.8942068284        8.7101574237  PROA      9               0.0000000000
       125         9  LEU       HB2             2.0890198597       -5.3465431199        9.5576756394  PROA      9               0.0000000000
       126         9  LEU       CG              0.6459915039       -3.9165758293        8.9546003732  PROA      9               0.0000000000
       127         9  LEU       HG             -0.1889416492       -4.6418191495        9.0605394761  PROA      9               0.0000000000
       128         9  LEU       CD1             0.8167605616       -3.0906152195       10.2756003732  PROA      9               0.0000000000
       129         9  LEU       HD11            1.6528991821       -2.3669942177       10.1680557169  PROA      9               0.0000000000
       130         9  LEU       HD12            1.0452401005       -3.7734408585       11.1216502227  PROA      9               0.0000000000
       131         9  LEU       HD13           -0.1153271088       -2.5260326218       10.4917326609  PROA      9               0.0000000000
       132         9  LEU       CD2             0.2790995695       -3.0702766456        7.7576003732  PROA      9               0.0000000000
       133         9  LEU       HD21           -0.0132530660       -3.7204760398        6.9054902370  PROA      9               0.0000000000
       134         9  LEU       HD22            1.1498187961       -2.4526262222        7.4500128514  PROA      9               0.0000000000
       135         9  LEU       HD23           -0.5777228584       -2.4096357916        8.0099158302  PROA      9               0.0000000000
       136         9  LEU       C               3.2991932257       -6.0526120237        7.2706003732  PROA      9               0.0000000000
       137         9  LEU       O               4.3247334212       -5.3769521186        6.8206003732  PROA      9               0.0000000000
       138        10  THR       N               3.4454182284       -7.2646694681        7.8126003732  PROA      10              0.0000000000
       139        10  THR       HN              2.6932054693       -7.7836340655        8.2110789903  PROA      10              0.0000000000
       140        10  THR       CA              4.7626211603       -7.8729896440        7.8306003732  PROA      10              0.0000000000
       141        10  THR       HA              5.4987669640       -7.0840660861        7.7872842433  PROA      10              0.0000000000
       142        10  THR       CB              4.9527790081       -8.7514456718        9.1796003732  PROA      10              0.0000000000
       143        10  THR       HB              6.0225908882       -8.8605804025        9.4548676916  PROA      10              0.0000000000
       144        10  THR       OG1             4.3986063082       -9.9993229169        8.7776003732  PROA      10              0.0000000000
       145        10  THR       HG1             3.5427689742       -9.7970446802        8.3925991099  PROA      10              0.0000000000
       146        10  THR       CG2             4.1768329521       -8.1632002144       10.3696003732  PROA      10              0.0000000000
       147        10  THR       HG21            3.3216351775       -8.8224016085       10.6311558896  PROA      10              0.0000000000
       148        10  THR       HG22            3.7824734821       -7.1589465962       10.1046298476  PROA      10              0.0000000000
       149        10  THR       HG23            4.8449463502       -8.0814907764       11.2534567845  PROA      10              0.0000000000
       150        10  THR       C               5.0544452915       -8.6285759570        6.5646003732  PROA      10              0.0000000000
       151        10  THR       O               6.2640665868       -8.7750864410        6.1866003732  PROA      10              0.0000000000
       152        11  THR       N               4.0668350781       -9.0442141006        5.8076003732  PROA      11              0.0000000000
       153        11  THR       HN              3.1022643756       -8.8457050974        5.9576060995  PROA      11              0.0000000000
       154        11  THR       CA              4.4736598236       -9.8889736087        4.6246003732  PROA      11              0.0000000000
       155        11  THR       HA              5.5380910553       -9.7873865244        4.4737002672  PROA      11              0.0000000000
       156        11  THR       CB              4.0804569484      -11.4128684537        4.9546003732  PROA      11              0.0000000000
       157        11  THR       HB              4.3073056433      -12.0804560943        4.0964996395  PROA      11              0.0000000000
       158        11  THR       OG1             2.6523683331      -11.3702667284        5.1946003732  PROA      11              0.0000000000
       159        11  THR       HG1             2.5445768110      -11.0528228084        6.0941615692  PROA      11              0.0000000000
       160        11  THR       CG2             4.8366442633      -11.8796454290        6.1876003732  PROA      11              0.0000000000
       161        11  THR       HG21            4.3358767568      -11.5066869897        7.1065426493  PROA      11              0.0000000000
       162        11  THR       HG22            5.8755216451      -11.4865876018        6.1653870690  PROA      11              0.0000000000
       163        11  THR       HG23            4.8573637623      -12.9899290159        6.2206935714  PROA      11              0.0000000000
       164        11  THR       C               3.8321273126       -9.4043283391        3.3666003732  PROA      11              0.0000000000
       165        11  THR       O               4.4778901769       -9.2985440158        2.3156003732  PROA      11              0.0000000000
       166        12  GLY       N               2.5668561053       -9.0413713553        3.4106003732  PROA      12              0.0000000000
       167        12  GLY       HN              2.0110996863       -8.9924370456        4.2359590388  PROA      12              0.0000000000
       168        12  GLY       CA              1.9455746584       -8.6773241554        2.0766003732  PROA      12              0.0000000000
       169        12  GLY       HA1             0.8766616031       -8.8167987209        2.1410007424  PROA      12              0.0000000000
       170        12  GLY       HA2             2.3597594293       -9.3190849862        1.3132068355  PROA      12              0.0000000000
       171        12  GLY       C               2.2616566314       -7.2166540399        1.7566003732  PROA      12              0.0000000000
       172        12  GLY       O               2.3701688719       -6.9862151247        0.5526003732  PROA      12              0.0000000000
       173        13  LEU       N               2.3839787234       -6.2610404644        2.6876003732  PROA      13              0.0000000000
       174        13  LEU       HN              2.2633154001       -6.4762847051        3.6526285416  PROA      13              0.0000000000
       175        13  LEU       CA              2.6899696265       -4.8750842720        2.4156003732  PROA      13              0.0000000000
       176        13  LEU       HA              2.0470360480       -4.5617189185        1.6069441121  PROA      13              0.0000000000
       177        13  LEU       CB              2.4917738078       -3.9174045669        3.6386003732  PROA      13              0.0000000000
       178        13  LEU       HB1             3.4959732913       -3.5829541888        3.9723895026  PROA      13              0.0000000000
       179        13  LEU       HB2             2.0166101225       -4.5028287756        4.4529631973  PROA      13              0.0000000000
       180        13  LEU       CG              1.6477430914       -2.6817423357        3.4056003732  PROA      13              0.0000000000
       181        13  LEU       HG              0.5824637199       -2.9905722540        3.3540041545  PROA      13              0.0000000000
       182        13  LEU       CD1             1.7870214590       -1.6047471935        4.4916003732  PROA      13              0.0000000000
       183        13  LEU       HD11            2.7918431481       -1.1340554158        4.4358901969  PROA      13              0.0000000000
       184        13  LEU       HD12            1.6651755378       -2.0628957044        5.4963429343  PROA      13              0.0000000000
       185        13  LEU       HD13            1.0176676086       -0.8170192072        4.3438391702  PROA      13              0.0000000000
       186        13  LEU       CD2             1.8263409008       -2.0003732562        2.0796003732  PROA      13              0.0000000000
       187        13  LEU       HD21            1.5711647326       -2.6987135078        1.2540538778  PROA      13              0.0000000000
       188        13  LEU       HD22            2.8830147241       -1.6793098429        1.9587168905  PROA      13              0.0000000000
       189        13  LEU       HD23            1.1569912949       -1.1159848933        2.0157064824  PROA      13              0.0000000000
       190        13  LEU       C               4.0456743037       -4.5906729004        1.7436003732  PROA      13              0.0000000000
       191        13  LEU       O               4.0793347724       -3.8100910836        0.7246003732  PROA      13              0.0000000000
       192        14  PRO       N               5.1181448097       -5.1685621750        2.1816003732  PROA      14              0.0000000000
       193        14  PRO       CD              5.2224217363       -5.6687134747        3.5906003732  PROA      14              0.0000000000
       194        14  PRO       HD1             4.4403637096       -6.4307399387        3.7895050176  PROA      14              0.0000000000
       195        14  PRO       HD2             5.1245681649       -4.8274868062        4.3079737189  PROA      14              0.0000000000
       196        14  PRO       CA              6.3998271845       -5.0881427121        1.5186003732  PROA      14              0.0000000000
       197        14  PRO       HA              6.7245981151       -4.0619108316        1.4601672992  PROA      14              0.0000000000
       198        14  PRO       CB              7.2910873862       -5.9782816073        2.3376003732  PROA      14              0.0000000000
       199        14  PRO       HB1             8.2587142894       -5.4717488332        2.5411425361  PROA      14              0.0000000000
       200        14  PRO       HB2             7.4901163023       -6.9273858085        1.7954791757  PROA      14              0.0000000000
       201        14  PRO       CG              6.5762335207       -6.2529340258        3.6106003732  PROA      14              0.0000000000
       202        14  PRO       HG1             6.4992129925       -7.3512568290        3.7580017270  PROA      14              0.0000000000
       203        14  PRO       HG2             7.1511051664       -5.8167642238        4.4551421398  PROA      14              0.0000000000
       204        14  PRO       C               6.3574178757       -5.5145163164        0.0136003732  PROA      14              0.0000000000
       205        14  PRO       O               6.8836032989       -4.8137603672       -0.8503996268  PROA      14              0.0000000000
       206        15  ALA       N               5.7166850699       -6.6249695895       -0.3003996268  PROA      15              0.0000000000
       207        15  ALA       HN              5.2736580321       -7.1913337131        0.3899808563  PROA      15              0.0000000000
       208        15  ALA       CA              5.6126018859       -7.1014763479       -1.6853996268  PROA      15              0.0000000000
       209        15  ALA       HA              6.6001691276       -7.0608583233       -2.1201780982  PROA      15              0.0000000000
       210        15  ALA       CB              5.0732566259       -8.5059458885       -1.7663996268  PROA      15              0.0000000000
       211        15  ALA       HB1             4.0588329086       -8.5519638793       -1.3156803501  PROA      15              0.0000000000
       212        15  ALA       HB2             5.7399645897       -9.1996633314       -1.2109622307  PROA      15              0.0000000000
       213        15  ALA       HB3             5.0041422617       -8.8237934281       -2.8286850154  PROA      15              0.0000000000
       214        15  ALA       C               4.7425196491       -6.1474900267       -2.4843996268  PROA      15              0.0000000000
       215        15  ALA       O               5.1298649856       -5.8323510251       -3.6353996268  PROA      15              0.0000000000
       216        16  LEU       N               3.6691899093       -5.6564296742       -1.9373996268  PROA      16              0.0000000000
       217        16  LEU       HN              3.3644667684       -5.9657589410       -1.0406625388  PROA      16              0.0000000000
       218        16  LEU       CA              2.8342122374       -4.6464730973       -2.5493996268  PROA      16              0.0000000000
       219        16  LEU       HA              2.5433075312       -4.9985396808       -3.5279717674  PROA      16              0.0000000000
       220        16  LEU       CB              1.6114527997       -4.3891321607       -1.6963996268  PROA      16              0.0000000000
       221        16  LEU       HB1             1.9687565038       -4.1334810059       -0.6778115090  PROA      16              0.0000000000
       222        16  LEU       HB2             1.0361482353       -5.3365366595       -1.6517389338  PROA      16              0.0000000000
       223        16  LEU       CG              0.6459920982       -3.2950317842       -2.1233996268  PROA      16              0.0000000000
       224        16  LEU       HG              1.1883370763       -2.3328424126       -2.2432934084  PROA      16              0.0000000000
       225        16  LEU       CD1             0.0167844683       -3.7249733599       -3.4763996268  PROA      16              0.0000000000
       226        16  LEU       HD11           -0.5256494626       -4.6871248693       -3.3566043701  PROA      16              0.0000000000
       227        16  LEU       HD12            0.8140088919       -3.8597356855       -4.2383224804  PROA      16              0.0000000000
       228        16  LEU       HD13           -0.7033148943       -2.9523556355       -3.8210340141  PROA      16              0.0000000000
       229        16  LEU       CD2            -0.4416410736       -3.1623740152       -1.0623996268  PROA      16              0.0000000000
       230        16  LEU       HD21            0.0108171960       -2.8977768346       -0.0828125473  PROA      16              0.0000000000
       231        16  LEU       HD22           -0.9837063422       -4.1260480043       -0.9539939633  PROA      16              0.0000000000
       232        16  LEU       HD23           -1.1558349795       -2.3618265461       -1.3510255357  PROA      16              0.0000000000
       233        16  LEU       C               3.5689433753       -3.3617088562       -2.8933996268  PROA      16              0.0000000000
       234        16  LEU       O               3.2704309784       -2.6931010871       -3.9083996268  PROA      16              0.0000000000
       235        17  ILE       N               4.4461092952       -2.9341519022       -1.9933996268  PROA      17              0.0000000000
       236        17  ILE       HN              4.5588684172       -3.4105695294       -1.1257695423  PROA      17              0.0000000000
       237        17  ILE       CA              5.2962818430       -1.7824676404       -2.1643996268  PROA      17              0.0000000000
       238        17  ILE       HA              4.6543672802       -0.9716793719       -2.4730673991  PROA      17              0.0000000000
       239        17  ILE       CB              6.1087299245       -1.3332403984       -0.9283996268  PROA      17              0.0000000000
       240        17  ILE       HB              6.5904725394       -2.2278916904       -0.4806084379  PROA      17              0.0000000000
       241        17  ILE       CG2             7.2020194857       -0.2960904886       -1.2393996268  PROA      17              0.0000000000
       242        17  ILE       HG21            6.7471144539        0.6195046828       -1.6742190078  PROA      17              0.0000000000
       243        17  ILE       HG22            7.9239321454       -0.7157896617       -1.9721675414  PROA      17              0.0000000000
       244        17  ILE       HG23            7.7358509521       -0.0178133316       -0.3056759578  PROA      17              0.0000000000
       245        17  ILE       CG1             5.0522422265       -0.7230316274        0.0786003732  PROA      17              0.0000000000
       246        17  ILE       HG11            4.3623259280       -1.5364449388        0.3861209770  PROA      17              0.0000000000
       247        17  ILE       HG12            4.4741255280        0.0556919057       -0.4613675683  PROA      17              0.0000000000
       248        17  ILE       CD              5.6310578076       -0.0876596709        1.3486003732  PROA      17              0.0000000000
       249        17  ILE       HD1             6.1655319421        0.8528691468        1.0954918141  PROA      17              0.0000000000
       250        17  ILE       HD2             6.3500691890       -0.7864515938        1.8271049004  PROA      17              0.0000000000
       251        17  ILE       HD3             4.8113311298        0.1505421460        2.0596293240  PROA      17              0.0000000000
       252        17  ILE       C               6.2102571706       -1.9134069420       -3.4263996268  PROA      17              0.0000000000
       253        17  ILE       O               6.1716510440       -0.9173198138       -4.1273996268  PROA      17              0.0000000000
       254        18  SER       N               6.8569407863       -3.0064258353       -3.5773996268  PROA      18              0.0000000000
       255        18  SER       HN              6.8073734276       -3.6986910786       -2.8649907839  PROA      18              0.0000000000
       256        18  SER       CA              7.6851053743       -3.3967288139       -4.6823996268  PROA      18              0.0000000000
       257        18  SER       HA              8.4096805566       -2.6120875509       -4.8414974725  PROA      18              0.0000000000
       258        18  SER       CB              8.3877816034       -4.6994947626       -4.4313996268  PROA      18              0.0000000000
       259        18  SER       HB1             7.6450593762       -5.4861827353       -4.1788771409  PROA      18              0.0000000000
       260        18  SER       HB2             9.1055318170       -4.5852043404       -3.5911293076  PROA      18              0.0000000000
       261        18  SER       OG              9.1058365295       -5.0975991748       -5.6053996268  PROA      18              0.0000000000
       262        18  SER       HG1             9.9193916276       -4.5879673732       -5.6035210256  PROA      18              0.0000000000
       263        18  SER       C               6.8732787319       -3.4223706291       -6.0083996268  PROA      18              0.0000000000
       264        18  SER       O               7.3222997951       -2.8031969178       -6.9503996268  PROA      18              0.0000000000
       265        19  TRP       N               5.7191540234       -3.9942807245       -5.9953996268  PROA      19              0.0000000000
       266        19  TRP       HN              5.4582996082       -4.5610976338       -5.2199026799  PROA      19              0.0000000000
       267        19  TRP       CA              4.7096295093       -3.9103983346       -7.0153996268  PROA      19              0.0000000000
       268        19  TRP       HA              5.1393279451       -4.2809262407       -7.9341439895  PROA      19              0.0000000000
       269        19  TRP       CB              3.4601983695       -4.7259612243       -6.6533996268  PROA      19              0.0000000000
       270        19  TRP       HB1             3.0139660138       -4.2847185595       -5.7375990455  PROA      19              0.0000000000
       271        19  TRP       HB2             3.7785754109       -5.7679060984       -6.4401016004  PROA      19              0.0000000000
       272        19  TRP       CG              2.3802281883       -4.7849053305       -7.7043996268  PROA      19              0.0000000000
       273        19  TRP       CD1             2.3164279922       -5.8482973254       -8.5903996268  PROA      19              0.0000000000
       274        19  TRP       HD1             2.9898423759       -6.6924862416       -8.6044275821  PROA      19              0.0000000000
       275        19  TRP       NE1             1.2612881478       -5.6581923313       -9.4473996268  PROA      19              0.0000000000
       276        19  TRP       HE1             1.0188871709       -6.2665199125      -10.1707023906  PROA      19              0.0000000000
       277        19  TRP       CE2             0.5950935072       -4.5001402165       -9.1503996268  PROA      19              0.0000000000
       278        19  TRP       CD2             1.3159520873       -3.8980065872       -8.0593996268  PROA      19              0.0000000000
       279        19  TRP       CE3             0.8593983380       -2.6597753188       -7.6283996268  PROA      19              0.0000000000
       280        19  TRP       HE3             1.3611997463       -2.1248569859       -6.8358195918  PROA      19              0.0000000000
       281        19  TRP       CZ3            -0.2484679068       -2.0997785477       -8.2153996268  PROA      19              0.0000000000
       282        19  TRP       HZ3            -0.6034604130       -1.1531801774       -7.8369506050  PROA      19              0.0000000000
       283        19  TRP       CZ2            -0.5167113227       -3.9471067453       -9.7233996268  PROA      19              0.0000000000
       284        19  TRP       HZ2            -1.0664596175       -4.4536953375      -10.5028393040  PROA      19              0.0000000000
       285        19  TRP       CH2            -0.9418433065       -2.6898840934       -9.2773996268  PROA      19              0.0000000000
       286        19  TRP       HH2            -1.7802936021       -2.1904604548       -9.7396082901  PROA      19              0.0000000000
       287        19  TRP       C               4.4354153717       -2.5041662745       -7.4243996268  PROA      19              0.0000000000
       288        19  TRP       O               4.4247518755       -2.2224034490       -8.6873996268  PROA      19              0.0000000000
       289        20  ILE       N               4.0199814864       -1.5913488301       -6.5773996268  PROA      20              0.0000000000
       290        20  ILE       HN              3.8928658742       -1.8286149520       -5.6191133527  PROA      20              0.0000000000
       291        20  ILE       CA              3.7107062417       -0.2227295174       -6.8793996268  PROA      20              0.0000000000
       292        20  ILE       HA              2.8767640815       -0.2242406622       -7.5652105796  PROA      20              0.0000000000
       293        20  ILE       CB              3.3479025142        0.6247039344       -5.6053996268  PROA      20              0.0000000000
       294        20  ILE       HB              4.1562581157        0.5016482581       -4.8538774032  PROA      20              0.0000000000
       295        20  ILE       CG2             3.1774301165        2.1331008191       -5.9083996268  PROA      20              0.0000000000
       296        20  ILE       HG21            2.4946102190        2.2739899441       -6.7734015007  PROA      20              0.0000000000
       297        20  ILE       HG22            4.1625029278        2.5824985239       -6.1572517120  PROA      20              0.0000000000
       298        20  ILE       HG23            2.7429647459        2.6493494049       -5.0258004312  PROA      20              0.0000000000
       299        20  ILE       CG1             2.0021244030        0.0003536518       -5.0263996268  PROA      20              0.0000000000
       300        20  ILE       HG11            2.0159441861       -1.1056904830       -5.1302632812  PROA      20              0.0000000000
       301        20  ILE       HG12            1.1245116868        0.4013998957       -5.5770992763  PROA      20              0.0000000000
       302        20  ILE       CD              1.9201901366        0.4120413684       -3.4743996268  PROA      20              0.0000000000
       303        20  ILE       HD1             1.9080159426        1.5183352490       -3.3729765593  PROA      20              0.0000000000
       304        20  ILE       HD2             2.8043737303        0.0157480914       -2.9308693959  PROA      20              0.0000000000
       305        20  ILE       HD3             0.9902598486        0.0042861670       -3.0236009401  PROA      20              0.0000000000
       306        20  ILE       C               4.8917044647        0.4718460345       -7.5903996268  PROA      20              0.0000000000
       307        20  ILE       O               4.6600257116        1.2301770674       -8.5653996268  PROA      20              0.0000000000
       308        21  LYS       N               6.0454293894        0.2305748216       -7.0433996268  PROA      21              0.0000000000
       309        21  LYS       HN              6.1439102320       -0.3188466129       -6.2173251627  PROA      21              0.0000000000
       310        21  LYS       CA              7.2631295985        0.7584831475       -7.6193996268  PROA      21              0.0000000000
       311        21  LYS       HA              7.1174006444        1.8216751306       -7.7357948076  PROA      21              0.0000000000
       312        21  LYS       CB              8.5286261643        0.5137333937       -6.8083996268  PROA      21              0.0000000000
       313        21  LYS       HB1             9.4287469575        0.7569287469       -7.4124807638  PROA      21              0.0000000000
       314        21  LYS       HB2             8.5858353347       -0.5495423908       -6.4914656286  PROA      21              0.0000000000
       315        21  LYS       CG              8.4411738827        1.4478362244       -5.5633996268  PROA      21              0.0000000000
       316        21  LYS       HG1             7.4609490988        1.3105904082       -5.0588325659  PROA      21              0.0000000000
       317        21  LYS       HG2             8.5354405356        2.5080316135       -5.8817775392  PROA      21              0.0000000000
       318        21  LYS       CD              9.5849846775        1.0915401880       -4.5883996268  PROA      21              0.0000000000
       319        21  LYS       HD1            10.5698355790        1.3321071215       -5.0427954800  PROA      21              0.0000000000
       320        21  LYS       HD2             9.5591016436        0.0088506849       -4.3406238262  PROA      21              0.0000000000
       321        21  LYS       CE              9.3600295781        1.9287875847       -3.3343996268  PROA      21              0.0000000000
       322        21  LYS       HE1             8.3725498197        1.6830399099       -2.8886885577  PROA      21              0.0000000000
       323        21  LYS       HE2             9.4058881282        3.0092326183       -3.5887656476  PROA      21              0.0000000000
       324        21  LYS       NZ             10.4059841531        1.6554141642       -2.3083996268  PROA      21              0.0000000000
       325        21  LYS       HZ1            11.3424944813        1.8863004758       -2.6972953924  PROA      21              0.0000000000
       326        21  LYS       HZ2            10.3784485166        0.6497832476       -2.0446802979  PROA      21              0.0000000000
       327        21  LYS       HZ3            10.2267063404        2.2391054339       -1.4665186354  PROA      21              0.0000000000
       328        21  LYS       C               7.4551493175        0.2753377993       -9.0713996268  PROA      21              0.0000000000
       329        21  LYS       O               7.7514365671        1.2439945319       -9.8223996268  PROA      21              0.0000000000
       330        22  ARG       N               7.2222587768       -0.9509113581       -9.4323996268  PROA      22              0.0000000000
       331        22  ARG       HN              6.9662517773       -1.6187810323       -8.7411129843  PROA      22              0.0000000000
       332        22  ARG       CA              7.2863582853       -1.5099080066      -10.7673996268  PROA      22              0.0000000000
       333        22  ARG       HA              8.2467752830       -1.2467985747      -11.1848922729  PROA      22              0.0000000000
       334        22  ARG       CB              7.1146940117       -3.0361794035      -10.7743996268  PROA      22              0.0000000000
       335        22  ARG       HB1             6.9526000798       -3.3972762677      -11.8125015423  PROA      22              0.0000000000
       336        22  ARG       HB2             6.2397015989       -3.3247030099      -10.1535426534  PROA      22              0.0000000000
       337        22  ARG       CG              8.3927203112       -3.6487647263      -10.1983996268  PROA      22              0.0000000000
       338        22  ARG       HG1             8.4459642378       -3.4235697348       -9.1119949512  PROA      22              0.0000000000
       339        22  ARG       HG2             9.2723559279       -3.1952586263      -10.7027766864  PROA      22              0.0000000000
       340        22  ARG       CD              8.4271718212       -5.1112451855      -10.3903996268  PROA      22              0.0000000000
       341        22  ARG       HD1             9.1902132274       -5.5391489479       -9.7062556097  PROA      22              0.0000000000
       342        22  ARG       HD2             8.6987107317       -5.3222755106      -11.4463918975  PROA      22              0.0000000000
       343        22  ARG       NE              7.1643660018       -5.8468636073      -10.1253996268  PROA      22              0.0000000000
       344        22  ARG       HE              6.4694309188       -5.9542817212      -10.8361180166  PROA      22              0.0000000000
       345        22  ARG       CZ              6.9863089339       -6.3688441439       -8.8833996268  PROA      22              0.0000000000
       346        22  ARG       NH1             7.8115394259       -6.2037271094       -7.8433996268  PROA      22              0.0000000000
       347        22  ARG       HH11            8.6420786141       -5.6563235531       -7.9461323055  PROA      22              0.0000000000
       348        22  ARG       HH12            7.5978290385       -6.6277118833       -6.9633060058  PROA      22              0.0000000000
       349        22  ARG       NH2             5.8816866133       -7.0847907402       -8.6373996268  PROA      22              0.0000000000
       350        22  ARG       HH21            5.2064284498       -7.2268551260       -9.3611703936  PROA      22              0.0000000000
       351        22  ARG       HH22            5.7320680784       -7.4773594626       -7.7299283643  PROA      22              0.0000000000
       352        22  ARG       C               6.3245847495       -0.8602121809      -11.7003996268  PROA      22              0.0000000000
       353        22  ARG       O               6.6579887201       -0.4352900794      -12.8593996268  PROA      22              0.0000000000
       354        23  LYS       N               5.1163777173       -0.6685464109      -11.2503996268  PROA      23              0.0000000000
       355        23  LYS       HN              4.8710228046       -0.9376164506      -10.3231710828  PROA      23              0.0000000000
       356        23  LYS       CA              4.0439506691       -0.0722996280      -12.0073996268  PROA      23              0.0000000000
       357        23  LYS       HA              3.9959668077       -0.5553485637      -12.9720515639  PROA      23              0.0000000000
       358        23  LYS       CB              2.7457335657       -0.2571058849      -11.2503996268  PROA      23              0.0000000000
       359        23  LYS       HB1             2.0326060611        0.5380214988      -11.5553060209  PROA      23              0.0000000000
       360        23  LYS       HB2             2.9449721639       -0.1628464691      -10.1617465844  PROA      23              0.0000000000
       361        23  LYS       CG              2.1090436575       -1.6386839539      -11.5283996268  PROA      23              0.0000000000
       362        23  LYS       HG1             1.6169341433       -2.0401475330      -10.6170364480  PROA      23              0.0000000000
       363        23  LYS       HG2             2.8738526069       -2.3665185582      -11.8737279959  PROA      23              0.0000000000
       364        23  LYS       CD              1.0618051926       -1.3553932946      -12.6493996268  PROA      23              0.0000000000
       365        23  LYS       HD1             1.5160908303       -0.6885443327      -13.4128326255  PROA      23              0.0000000000
       366        23  LYS       HD2             0.1809781669       -0.8448870910      -12.2050798218  PROA      23              0.0000000000
       367        23  LYS       CE              0.6129250872       -2.6283597713      -13.3103996268  PROA      23              0.0000000000
       368        23  LYS       HE1             0.4407109700       -3.4043527200      -12.5343608791  PROA      23              0.0000000000
       369        23  LYS       HE2             1.3946342642       -2.9677345582      -14.0230106098  PROA      23              0.0000000000
       370        23  LYS       NZ             -0.6803073359       -2.4793634624      -14.0953996268  PROA      23              0.0000000000
       371        23  LYS       HZ1            -0.5523521931       -1.7683454551      -14.8435178492  PROA      23              0.0000000000
       372        23  LYS       HZ2            -1.4414933716       -2.1757240699      -13.4550883163  PROA      23              0.0000000000
       373        23  LYS       HZ3            -0.9325480501       -3.3925191226      -14.5244928550  PROA      23              0.0000000000
       374        23  LYS       C               4.2707228556        1.4457792156      -12.2913996268  PROA      23              0.0000000000
       375        23  LYS       O               3.7468779331        1.9638105826      -13.3033996268  PROA      23              0.0000000000
       376        24  ARG       N               4.9400855461        2.1092086306      -11.3523996268  PROA      24              0.0000000000
       377        24  ARG       HN              5.2634608822        1.6547932973      -10.5264719860  PROA      24              0.0000000000
       378        24  ARG       CA              5.2562736831        3.5456922058      -11.4483996268  PROA      24              0.0000000000
       379        24  ARG       HA              4.3765747178        4.0571026209      -11.8099613769  PROA      24              0.0000000000
       380        24  ARG       CB              5.6799577985        4.1160085833      -10.0613996268  PROA      24              0.0000000000
       381        24  ARG       HB1             6.4152116045        4.9365993743      -10.2037065533  PROA      24              0.0000000000
       382        24  ARG       HB2             6.1513534652        3.3129659119       -9.4554893529  PROA      24              0.0000000000
       383        24  ARG       CG              4.4310170614        4.6581451299       -9.3253996268  PROA      24              0.0000000000
       384        24  ARG       HG1             3.6448884944        3.8734730784       -9.3068634486  PROA      24              0.0000000000
       385        24  ARG       HG2             4.0400118935        5.5452574056       -9.8678005037  PROA      24              0.0000000000
       386        24  ARG       CD              4.7750075340        5.0449106335       -7.9303996268  PROA      24              0.0000000000
       387        24  ARG       HD1             5.0736698102        4.1336642806       -7.3699538234  PROA      24              0.0000000000
       388        24  ARG       HD2             3.8835535504        5.5093719205       -7.4579019262  PROA      24              0.0000000000
       389        24  ARG       NE              5.8713764467        6.0021949211       -7.7923996268  PROA      24              0.0000000000
       390        24  ARG       HE              6.8150095667        5.6791007005       -7.7205963968  PROA      24              0.0000000000
       391        24  ARG       CZ              5.6019824855        7.3275767128       -7.7623996268  PROA      24              0.0000000000
       392        24  ARG       NH1             4.3730482056        7.6918095167       -7.9993996268  PROA      24              0.0000000000
       393        24  ARG       HH11            4.0931525294        8.6389258805       -7.8424633212  PROA      24              0.0000000000
       394        24  ARG       HH12            3.7101486020        7.0241197862       -8.3381540206  PROA      24              0.0000000000
       395        24  ARG       NH2             6.4948549218        8.2460127816       -7.3733996268  PROA      24              0.0000000000
       396        24  ARG       HH21            7.4103956817        7.9634815453       -7.0871109305  PROA      24              0.0000000000
       397        24  ARG       HH22            6.2462933686        9.2146193582       -7.3691037997  PROA      24              0.0000000000
       398        24  ARG       C               6.3183401821        3.7273532960      -12.5113996268  PROA      24              0.0000000000
       399        24  ARG       O               6.2058116992        4.7227438428      -13.2833996268  PROA      24              0.0000000000
       400        25  GLN       N               7.2700965330        2.8730782534      -12.6183996268  PROA      25              0.0000000000
       401        25  GLN       HN              7.3486430718        2.0826501521      -12.0159436438  PROA      25              0.0000000000
       402        25  GLN       CA              8.3325684397        3.0188947395      -13.6713996268  PROA      25              0.0000000000
       403        25  GLN       HA              8.5329840777        4.0711229351      -13.8086925772  PROA      25              0.0000000000
       404        25  GLN       CB              9.5993532617        2.2828443237      -13.2243996268  PROA      25              0.0000000000
       405        25  GLN       HB1            10.3938768900        2.3810524741      -13.9947188030  PROA      25              0.0000000000
       406        25  GLN       HB2             9.3830824224        1.2044426940      -13.0676159573  PROA      25              0.0000000000
       407        25  GLN       CG             10.0536837155        2.9357791128      -11.9003996268  PROA      25              0.0000000000
       408        25  GLN       HG1             9.1566813759        3.1552507008      -11.2833153975  PROA      25              0.0000000000
       409        25  GLN       HG2            10.5789447375        3.8865815979      -12.1320230587  PROA      25              0.0000000000
       410        25  GLN       CD             10.9818166254        2.0661439585      -11.0943996268  PROA      25              0.0000000000
       411        25  GLN       OE1            11.2318249053        2.3314378708       -9.9113996268  PROA      25              0.0000000000
       412        25  GLN       NE2            11.4588244398        1.0001643409      -11.7503996268  PROA      25              0.0000000000
       413        25  GLN       HE21           12.0826968307        0.3681475151      -11.2906845284  PROA      25              0.0000000000
       414        25  GLN       HE22           11.1910683738        0.8363603594      -12.6998599708  PROA      25              0.0000000000
       415        25  GLN       C               7.8657902070        2.6303499139      -15.0443996268  PROA      25              0.0000000000
       416        25  GLN       O               8.4640249367        3.0238130102      -16.0723996268  PROA      25              0.0000000000
       417        26  GLN       N               6.8227225670        1.8221427014      -15.1443996268  PROA      26              0.0000000000
       418        26  GLN       HN              6.4832562553        1.3305938708      -14.3472466364  PROA      26              0.0000000000
       419        26  GLN       CA              6.0829694402        1.5684670985      -16.3753996268  PROA      26              0.0000000000
       420        26  GLN       HA              6.8210846492        1.3919292424      -17.1425787782  PROA      26              0.0000000000
       421        26  GLN       CB              5.1085321629        0.4123922771      -16.3633996268  PROA      26              0.0000000000
       422        26  GLN       HB1             4.4734227928        0.4879981215      -17.2707435924  PROA      26              0.0000000000
       423        26  GLN       HB2             4.4658969205        0.5130972710      -15.4638265742  PROA      26              0.0000000000
       424        26  GLN       CG              5.7411569537       -0.9817235265      -16.3413996268  PROA      26              0.0000000000
       425        26  GLN       HG1             6.5392408823       -1.0335029101      -15.5702951683  PROA      26              0.0000000000
       426        26  GLN       HG2             6.1769537736       -1.2257307370      -17.3337517622  PROA      26              0.0000000000
       427        26  GLN       CD              4.6141932302       -1.9768490291      -16.0013996268  PROA      26              0.0000000000
       428        26  GLN       OE1             3.4540681047       -1.7468931788      -16.4243996268  PROA      26              0.0000000000
       429        26  GLN       NE2             5.0042820980       -2.9649434959      -15.2033996268  PROA      26              0.0000000000
       430        26  GLN       HE21            5.9515512826       -3.0067173370      -14.8856953018  PROA      26              0.0000000000
       431        26  GLN       HE22            4.3506113941       -3.6668541287      -14.9204931499  PROA      26              0.0000000000
       432        26  GLN       C               5.3415139168        2.8047036077      -16.8893996268  PROA      26              0.0000000000
       433        26  GLN       O               5.6848171351        2.9241686666      -18.0983996268  PROA      26              0.0000000000
       434        26  GLN       NT              4.5412248229        3.4470368579      -15.9969057266  PROA      26              0.0000000000
       435        26  GLN       HT1             4.4617419631        3.1054476597      -15.0604233217  PROA      26              0.0000000000
       436        26  GLN       HT2             4.0322598195        4.2609299165      -16.2771426167  PROA      26              0.0000000000
       437        27  GLY       N               9.1948266101        8.7925828890       12.8676003732  P2PROA    1               0.0000000000
       438        27  GLY       HT1            10.0497009238        9.3255489207       13.1259356530  P2PROA    1               0.0000000000
       439        27  GLY       HT2             8.5861020586        9.3838996983       12.2664360966  P2PROA    1               0.0000000000
       440        27  GLY       HT3             9.4657259936        7.9337450370       12.3473978124  P2PROA    1               0.0000000000
       441        27  GLY       CA              8.4581013073        8.4142644672       14.0956003732  P2PROA    1               0.0064986403
       442        27  GLY       HA1             8.1899862515        9.3230103656       14.6138727141  P2PROA    1               0.0073876218
       443        27  GLY       HA2             9.1169988650        7.8136147682       14.7050139912  P2PROA    1               0.0116660646
       444        27  GLY       C               7.1917188527        7.6174806330       13.7806003732  P2PROA    1               0.0000000000
       445        27  GLY       O               6.7621305629        7.5445224170       12.6036003732  P2PROA    1               0.0000000000
       446        28  ILE       N               6.5326564512        7.0941329943       14.8156003732  P2PROA    2               0.0247572030
       447        28  ILE       HN              6.9108126859        7.1195277597       15.7372984674  P2PROA    2               0.0389923129
       448        28  ILE       CA              5.2207101938        6.4483489610       14.6926003732  P2PROA    2               0.0228748912
       449        28  ILE       HA              5.2900245336        5.7298808175       13.8896378297  P2PROA    2               0.0000000000
       450        28  ILE       CB              4.7523146970        5.7217991288       16.0176003732  P2PROA    2               0.0455213191
       451        28  ILE       HB              4.8943373463        6.4282244227       16.8618509053  P2PROA    2               0.0614129276
       452        28  ILE       CG2             3.2832614633        5.2349597337       16.0476003732  P2PROA    2               0.0457195750
       453        28  ILE       HG21            3.1056548994        4.5064214817       15.2278388690  P2PROA    2               0.0326596660
       454        28  ILE       HG22            2.5962611841        6.0972635789       15.9107910331  P2PROA    2               0.0514210363
       455        28  ILE       HG23            3.0697386092        4.7367189730       17.0173520094  P2PROA    2               0.0612269084
       456        28  ILE       CG1             5.7287480597        4.6145991071       16.4166003732  P2PROA    2               0.0479681771
       457        28  ILE       HG11            5.2022154485        3.9583463954       17.1394014439  P2PROA    2               0.0608814440
       458        28  ILE       HG12            6.5855448468        5.1013377552       16.9258452593  P2PROA    2               0.0613863534
       459        28  ILE       CD              6.3030073887        3.7164948686       15.3296003732  P2PROA    2               0.0362222720
       460        28  ILE       HD1             6.8667422428        4.3246223787       14.5902053869  P2PROA    2               0.0063246546
       461        28  ILE       HD2             5.4803578290        3.1888205985       14.8013374960  P2PROA    2               0.0158913590
       462        28  ILE       HD3             6.9957006990        2.9736273091       15.7796868842  P2PROA    2               0.0484978766
       463        28  ILE       C               4.2600069624        7.5041431177       14.2426003732  P2PROA    2               0.0107520556
       464        28  ILE       O               3.2850798079        7.2226434846       13.5606003732  P2PROA    2               0.0000000000
       465        29  GLY       N               4.5474503866        8.7638733578       14.6536003732  P2PROA    3               0.0202677233
       466        29  GLY       HN              5.4179249683        9.0314169038       15.0591336632  P2PROA    3               0.0000000000
       467        29  GLY       CA              3.5069169212        9.8085259829       14.4916003732  P2PROA    3               0.0179101960
       468        29  GLY       HA1             3.8090187182       10.7163222284       14.9905762733  P2PROA    3               0.0239167611
       469        29  GLY       HA2             2.5645258512        9.4604225908       14.8853764105  P2PROA    3               0.0195585957
       470        29  GLY       C               3.4344572464       10.0115028179       12.9256003732  P2PROA    3               0.0000000000
       471        29  GLY       O               2.3337567083       10.2388666793       12.4046003732  P2PROA    3               0.0000000000
       472        30  ALA       N               4.6003617280        9.9908209483       12.3546003732  P2PROA    4               0.0000000000
       473        30  ALA       HN              5.4511902201        9.7882184643       12.8329011245  P2PROA    4               0.0000000000
       474        30  ALA       CA              4.6735812848       10.2929217535       10.8706003732  P2PROA    4               0.0000000000
       475        30  ALA       HA              4.1600850176       11.2206826070       10.6674521531  P2PROA    4               0.0000000000
       476        30  ALA       CB              6.1600794139       10.3942100163       10.5536003732  P2PROA    4               0.0000000000
       477        30  ALA       HB1             6.6680354358        9.4359869368       10.7946609667  P2PROA    4               0.0000000000
       478        30  ALA       HB2             6.6217662613       11.2026854222       11.1597908332  P2PROA    4               0.0000000000
       479        30  ALA       HB3             6.3024903692       10.6090773372        9.4729499880  P2PROA    4               0.0000000000
       480        30  ALA       C               4.0121001311        9.1620355155       10.0766003732  P2PROA    4               0.0000000000
       481        30  ALA       O               3.2079948191        9.3836311996        9.1686003732  P2PROA    4               0.0000000000
       482        31  VAL       N               4.3012739335        7.9081852406       10.4286003732  P2PROA    5               0.0000000000
       483        31  VAL       HN              4.9560243443        7.7433942665       11.1596309420  P2PROA    5               0.0000000000
       484        31  VAL       CA              3.7506263413        6.6766962113        9.8476003732  P2PROA    5               0.0000000000
       485        31  VAL       HA              3.8329546360        6.7564048685        8.7738947775  P2PROA    5               0.0000000000
       486        31  VAL       CB              4.4860597533        5.4277816039       10.3356003732  P2PROA    5               0.0000000000
       487        31  VAL       HB              4.4274777053        5.3749875150       11.4436801037  P2PROA    5               0.0000000000
       488        31  VAL       CG1             3.8551957679        4.1600940904        9.7296003732  P2PROA    5               0.0000000000
       489        31  VAL       HG11            3.9144792143        4.1967571046        8.6207891646  P2PROA    5               0.0000000000
       490        31  VAL       HG12            2.7866086341        4.0909576724       10.0255662389  P2PROA    5               0.0000000000
       491        31  VAL       HG13            4.4006567023        3.2596152881       10.0843740988  P2PROA    5               0.0000000000
       492        31  VAL       CG2             5.9526315284        5.3496264483       10.2376003732  P2PROA    5               0.0000000000
       493        31  VAL       HG21            6.4132981592        6.2649066534       10.6669829550  P2PROA    5               0.0000000000
       494        31  VAL       HG22            6.2565055473        5.2659265611        9.1722792900  P2PROA    5               0.0000000000
       495        31  VAL       HG23            6.3229100297        4.4676560229       10.8026455935  P2PROA    5               0.0000000000
       496        31  VAL       C               2.2543848044        6.6475540918       10.0286003732  P2PROA    5               0.0000000000
       497        31  VAL       O               1.3855467718        6.4703381977        9.1186003732  P2PROA    5               0.0000000000
       498        32  LEU       N               1.8171788335        7.0384568150       11.2446003732  P2PROA    6               0.0000000000
       499        32  LEU       HN              2.4471911672        7.2682257335       11.9821199661  P2PROA    6               0.0000000000
       500        32  LEU       CA              0.4261286877        7.1485726262       11.5546003732  P2PROA    6               0.0000000000
       501        32  LEU       HA             -0.0994154195        6.2869809931       11.1712373540  P2PROA    6               0.0000000000
       502        32  LEU       CB              0.3733842961        7.2117234707       13.1196003732  P2PROA    6               0.0000000000
       503        32  LEU       HB1             1.0567274779        8.0125363379       13.4739323611  P2PROA    6               0.0000000000
       504        32  LEU       HB2             0.7143633632        6.2391722742       13.5339525856  P2PROA    6               0.0000000000
       505        32  LEU       CG             -1.0225325929        7.4980729755       13.6176003732  P2PROA    6               0.0000000000
       506        32  LEU       HG             -1.3646584849        8.4697036620       13.2020055040  P2PROA    6               0.0000000000
       507        32  LEU       CD1            -2.0042951201        6.4001388517       13.1986003732  P2PROA    6               0.0000000000
       508        32  LEU       HD11           -1.5933030879        5.4011009322       13.4580802084  P2PROA    6               0.0000000000
       509        32  LEU       HD12           -2.1711755873        6.4408382489       12.1009899827  P2PROA    6               0.0000000000
       510        32  LEU       HD13           -2.9710348350        6.5346875463       13.7292274297  P2PROA    6               0.0000000000
       511        32  LEU       CD2            -0.8597958823        7.5542313501       15.1616003732  P2PROA    6               0.0331577353
       512        32  LEU       HD21           -0.1454619826        8.3578750449       15.4412517480  P2PROA    6               0.0395158041
       513        32  LEU       HD22           -0.4672449197        6.5846950719       15.5359761841  P2PROA    6               0.0421466479
       514        32  LEU       HD23           -1.8402286744        7.7697397382       15.6375854313  P2PROA    6               0.0448306399
       515        32  LEU       C              -0.2723711616        8.1215453702       10.7226003732  P2PROA    6               0.0000000000
       516        32  LEU       O              -1.4051391135        7.8270733561       10.1416003732  P2PROA    6               0.0000000000
       517        33  LYS       N               0.2350035216        9.3212152960       10.4736003732  P2PROA    7               0.0000000000
       518        33  LYS       HN              1.0907262449        9.6535804049       10.8622769977  P2PROA    7               0.0000000000
       519        33  LYS       CA             -0.5040952928       10.2183479186        9.5716003732  P2PROA    7               0.0000000000
       520        33  LYS       HA             -1.4728732657       10.3996076993       10.0127125961  P2PROA    7               0.0000000000
       521        33  LYS       CB              0.2317508646       11.5599255096        9.3466003732  P2PROA    7               0.0000000000
       522        33  LYS       HB1            -0.2426071686       12.0711949879        8.4829714374  P2PROA    7               0.0000000000
       523        33  LYS       HB2             1.2891905235       11.3337786423        9.0957101099  P2PROA    7               0.0000000000
       524        33  LYS       CG              0.2231441708       12.5034290468       10.5036003732  P2PROA    7               0.0000000000
       525        33  LYS       HG1             0.6056667080       11.9866030896       11.4095690777  P2PROA    7               0.0000000000
       526        33  LYS       HG2            -0.8155286890       12.8464179370       10.6978403452  P2PROA    7               0.0000000000
       527        33  LYS       CD              1.1162196080       13.7147148361       10.1836003732  P2PROA    7               0.0000000000
       528        33  LYS       HD1             0.9429778123       14.0175093009        9.1292066404  P2PROA    7               0.0000000000
       529        33  LYS       HD2             2.1792802072       13.4157834941       10.3018609623  P2PROA    7               0.0000000000
       530        33  LYS       CE              0.8385734963       14.9137918298       11.0916003732  P2PROA    7               0.0000000000
       531        33  LYS       HE1             1.3522328721       14.7798502387       12.0674793858  P2PROA    7               0.0000000000
       532        33  LYS       HE2            -0.2552890344       15.0279317986       11.2483261943  P2PROA    7               0.0000000000
       533        33  LYS       NZ              1.3571735174       16.1840874718       10.4586003732  P2PROA    7               0.0000000000
       534        33  LYS       HZ1             0.8842933124       16.3346664093        9.5446472588  P2PROA    7               0.0000000000
       535        33  LYS       HZ2             2.3831405146       16.1029985000       10.3088808508  P2PROA    7               0.0000000000
       536        33  LYS       HZ3             1.1616083183       16.9894065450       11.0869434953  P2PROA    7               0.0000000000
       537        33  LYS       C              -0.6622986344        9.6380336049        8.1406003732  P2PROA    7               0.0000000000
       538        33  LYS       O              -1.6891233829        9.9614774731        7.5236003732  P2PROA    7               0.0000000000
       539        34  VAL       N               0.3426608949        8.9834418661        7.6036003732  P2PROA    8               0.0000000000
       540        34  VAL       HN              1.2226181296        8.8977187481        8.0640371511  P2PROA    8               0.0000000000
       541        34  VAL       CA              0.2381077453        8.3314222046        6.2846003732  P2PROA    8               0.0000000000
       542        34  VAL       HA             -0.2508946995        9.0434382544        5.6381517827  P2PROA    8               0.0000000000
       543        34  VAL       CB              1.5277616814        7.8673589275        5.6056003732  P2PROA    8               0.0000000000
       544        34  VAL       HB              1.2583009075        7.3403999499        4.6661493189  P2PROA    8               0.0000000000
       545        34  VAL       CG1             2.4907178349        8.9828236049        5.2666003732  P2PROA    8               0.0000000000
       546        34  VAL       HG11            2.9321833088        9.4017618156        6.1960733481  P2PROA    8               0.0000000000
       547        34  VAL       HG12            1.9547795665        9.7953141455        4.7309854046  P2PROA    8               0.0000000000
       548        34  VAL       HG13            3.3120910865        8.5924263789        4.6284858942  P2PROA    8               0.0000000000
       549        34  VAL       CG2             2.2307582542        6.7459349138        6.2616003732  P2PROA    8               0.0000000000
       550        34  VAL       HG21            1.5200207881        5.9167137176        6.4654764680  P2PROA    8               0.0000000000
       551        34  VAL       HG22            2.6663131204        7.0848846837        7.2257886913  P2PROA    8               0.0000000000
       552        34  VAL       HG23            3.0379782252        6.3664319008        5.5993107973  P2PROA    8               0.0000000000
       553        34  VAL       C              -0.7782235658        7.1967457459        6.2686003732  P2PROA    8               0.0000000000
       554        34  VAL       O              -1.5606654022        7.0889970907        5.2676003732  P2PROA    8               0.0000000000
       555        35  LEU       N              -0.8372048429        6.4201459719        7.3526003732  P2PROA    9               0.0000000000
       556        35  LEU       HN             -0.1987602248        6.4563346710        8.1167308567  P2PROA    9               0.0000000000
       557        35  LEU       CA             -1.9621992738        5.4285021194        7.3916003732  P2PROA    9               0.0000000000
       558        35  LEU       HA             -1.8521493330        4.7602762729        6.5504385643  P2PROA    9               0.0000000000
       559        35  LEU       CB             -1.9252340263        4.6366949645        8.7196003732  P2PROA    9               0.0000000000
       560        35  LEU       HB1            -2.7508868307        3.8942068284        8.7101574237  P2PROA    9               0.0000000000
       561        35  LEU       HB2            -2.0890198597        5.3465431199        9.5576756394  P2PROA    9               0.0000000000
       562        35  LEU       CG             -0.6459915039        3.9165758293        8.9546003732  P2PROA    9               0.0000000000
       563        35  LEU       HG              0.1889416492        4.6418191495        9.0605394761  P2PROA    9               0.0000000000
       564        35  LEU       CD1            -0.8167605616        3.0906152195       10.2756003732  P2PROA    9               0.0000000000
       565        35  LEU       HD11           -1.6528991821        2.3669942177       10.1680557169  P2PROA    9               0.0000000000
       566        35  LEU       HD12           -1.0452401005        3.7734408585       11.1216502227  P2PROA    9               0.0000000000
       567        35  LEU       HD13            0.1153271088        2.5260326218       10.4917326609  P2PROA    9               0.0000000000
       568        35  LEU       CD2            -0.2790995695        3.0702766456        7.7576003732  P2PROA    9               0.0000000000
       569        35  LEU       HD21            0.0132530660        3.7204760398        6.9054902370  P2PROA    9               0.0000000000
       570        35  LEU       HD22           -1.1498187961        2.4526262222        7.4500128514  P2PROA    9               0.0000000000
       571        35  LEU       HD23            0.5777228584        2.4096357916        8.0099158302  P2PROA    9               0.0000000000
       572        35  LEU       C              -3.2991932257        6.0526120237        7.2706003732  P2PROA    9               0.0000000000
       573        35  LEU       O              -4.3247334212        5.3769521186        6.8206003732  P2PROA    9               0.0000000000
       574        36  THR       N              -3.4454182284        7.2646694681        7.8126003732  P2PROA    10              0.0000000000
       575        36  THR       HN             -2.6932054693        7.7836340655        8.2110789903  P2PROA    10              0.0000000000
       576        36  THR       CA             -4.7626211603        7.8729896440        7.8306003732  P2PROA    10              0.0000000000
       577        36  THR       HA             -5.4987669640        7.0840660861        7.7872842433  P2PROA    10              0.0000000000
       578        36  THR       CB             -4.9527790081        8.7514456718        9.1796003732  P2PROA    10              0.0000000000
       579        36  THR       HB             -6.0225908882        8.8605804025        9.4548676916  P2PROA    10              0.0000000000
       580        36  THR       OG1            -4.3986063082        9.9993229169        8.7776003732  P2PROA    10              0.0000000000
       581        36  THR       HG1            -3.5427689742        9.7970446802        8.3925991099  P2PROA    10              0.0000000000
       582        36  THR       CG2            -4.1768329521        8.1632002144       10.3696003732  P2PROA    10              0.0000000000
       583        36  THR       HG21           -3.3216351775        8.8224016085       10.6311558896  P2PROA    10              0.0000000000
       584        36  THR       HG22           -3.7824734821        7.1589465962       10.1046298476  P2PROA    10              0.0000000000
       585        36  THR       HG23           -4.8449463502        8.0814907764       11.2534567845  P2PROA    10              0.0000000000
       586        36  THR       C              -5.0544452915        8.6285759570        6.5646003732  P2PROA    10              0.0000000000
       587        36  THR       O              -6.2640665868        8.7750864410        6.1866003732  P2PROA    10              0.0000000000
       588        37  THR       N              -4.0668350781        9.0442141006        5.8076003732  P2PROA    11              0.0000000000
       589        37  THR       HN             -3.1022643756        8.8457050974        5.9576060995  P2PROA    11              0.0000000000
       590        37  THR       CA             -4.4736598236        9.8889736087        4.6246003732  P2PROA    11              0.0000000000
       591        37  THR       HA             -5.5380910553        9.7873865244        4.4737002672  P2PROA    11              0.0000000000
       592        37  THR       CB             -4.0804569484       11.4128684537        4.9546003732  P2PROA    11              0.0000000000
       593        37  THR       HB             -4.3073056433       12.0804560943        4.0964996395  P2PROA    11              0.0000000000
       594        37  THR       OG1            -2.6523683331       11.3702667284        5.1946003732  P2PROA    11              0.0000000000
       595        37  THR       HG1            -2.5445768110       11.0528228084        6.0941615692  P2PROA    11              0.0000000000
       596        37  THR       CG2            -4.8366442633       11.8796454290        6.1876003732  P2PROA    11              0.0000000000
       597        37  THR       HG21           -4.3358767568       11.5066869897        7.1065426493  P2PROA    11              0.0000000000
       598        37  THR       HG22           -5.8755216451       11.4865876018        6.1653870690  P2PROA    11              0.0000000000
       599        37  THR       HG23           -4.8573637623       12.9899290159        6.2206935714  P2PROA    11              0.0000000000
       600        37  THR       C              -3.8321273126        9.4043283391        3.3666003732  P2PROA    11              0.0000000000
       601        37  THR       O              -4.4778901769        9.2985440158        2.3156003732  P2PROA    11              0.0000000000
       602        38  GLY       N              -2.5668561053        9.0413713553        3.4106003732  P2PROA    12              0.0000000000
       603        38  GLY       HN             -2.0110996863        8.9924370456        4.2359590388  P2PROA    12              0.0000000000
       604        38  GLY       CA             -1.9455746584        8.6773241554        2.0766003732  P2PROA    12              0.0000000000
       605        38  GLY       HA1            -0.8766616031        8.8167987209        2.1410007424  P2PROA    12              0.0000000000
       606        38  GLY       HA2            -2.3597594293        9.3190849862        1.3132068355  P2PROA    12              0.0000000000
       607        38  GLY       C              -2.2616566314        7.2166540399        1.7566003732  P2PROA    12              0.0000000000
       608        38  GLY       O              -2.3701688719        6.9862151247        0.5526003732  P2PROA    12              0.0000000000
       609        39  LEU       N              -2.3839787234        6.2610404644        2.6876003732  P2PROA    13              0.0000000000
       610        39  LEU       HN             -2.2633154001        6.4762847051        3.6526285416  P2PROA    13              0.0000000000
       611        39  LEU       CA             -2.6899696265        4.8750842720        2.4156003732  P2PROA    13              0.0000000000
       612        39  LEU       HA             -2.0470360480        4.5617189185        1.6069441121  P2PROA    13              0.0000000000
       613        39  LEU       CB             -2.4917738078        3.9174045669        3.6386003732  P2PROA    13              0.0000000000
       614        39  LEU       HB1            -3.4959732913        3.5829541888        3.9723895026  P2PROA    13              0.0000000000
       615        39  LEU       HB2            -2.0166101225        4.5028287756        4.4529631973  P2PROA    13              0.0000000000
       616        39  LEU       CG             -1.6477430914        2.6817423357        3.4056003732  P2PROA    13              0.0000000000
       617        39  LEU       HG             -0.5824637199        2.9905722540        3.3540041545  P2PROA    13              0.0000000000
       618        39  LEU       CD1            -1.7870214590        1.6047471935        4.4916003732  P2PROA    13              0.0000000000
       619        39  LEU       HD11           -2.7918431481        1.1340554158        4.4358901969  P2PROA    13              0.0000000000
       620        39  LEU       HD12           -1.6651755378        2.0628957044        5.4963429343  P2PROA    13              0.0000000000
       621        39  LEU       HD13           -1.0176676086        0.8170192072        4.3438391702  P2PROA    13              0.0000000000
       622        39  LEU       CD2            -1.8263409008        2.0003732562        2.0796003732  P2PROA    13              0.0000000000
       623        39  LEU       HD21           -1.5711647326        2.6987135078        1.2540538778  P2PROA    13              0.0000000000
       624        39  LEU       HD22           -2.8830147241        1.6793098429        1.9587168905  P2PROA    13              0.0000000000
       625        39  LEU       HD23           -1.1569912949        1.1159848933        2.0157064824  P2PROA    13              0.0000000000
       626        39  LEU       C              -4.0456743037        4.5906729004        1.7436003732  P2PROA    13              0.0000000000
       627        39  LEU       O              -4.0793347724        3.8100910836        0.7246003732  P2PROA    13              0.0000000000
       628        40  PRO       N              -5.1181448097        5.1685621750        2.1816003732  P2PROA    14              0.0000000000
       629        40  PRO       CD             -5.2224217363        5.6687134747        3.5906003732  P2PROA    14              0.0000000000
       630        40  PRO       HD1            -4.4403637096        6.4307399387        3.7895050176  P2PROA    14              0.0000000000
       631        40  PRO       HD2            -5.1245681649        4.8274868062        4.3079737189  P2PROA    14              0.0000000000
       632        40  PRO       CA             -6.3998271845        5.0881427121        1.5186003732  P2PROA    14              0.0000000000
       633        40  PRO       HA             -6.7245981151        4.0619108316        1.4601672992  P2PROA    14              0.0000000000
       634        40  PRO       CB             -7.2910873862        5.9782816073        2.3376003732  P2PROA    14              0.0000000000
       635        40  PRO       HB1            -8.2587142894        5.4717488332        2.5411425361  P2PROA    14              0.0000000000
       636        40  PRO       HB2            -7.4901163023        6.9273858085        1.7954791757  P2PROA    14              0.0000000000
       637        40  PRO       CG             -6.5762335207        6.2529340258        3.6106003732  P2PROA    14              0.0000000000
       638        40  PRO       HG1            -6.4992129925        7.3512568290        3.7580017270  P2PROA    14              0.0000000000
       639        40  PRO       HG2            -7.1511051664        5.8167642238        4.4551421398  P2PROA    14              0.0000000000
       640        40  PRO       C              -6.3574178757        5.5145163164        0.0136003732  P2PROA    14              0.0000000000
       641        40  PRO       O              -6.8836032989        4.8137603672       -0.8503996268  P2PROA    14              0.0000000000
       642        41  ALA       N              -5.7166850699        6.6249695895       -0.3003996268  P2PROA    15              0.0000000000
       643        41  ALA       HN             -5.2736580321        7.1913337131        0.3899808563  P2PROA    15              0.0000000000
       644        41  ALA       CA             -5.6126018859        7.1014763479       -1.6853996268  P2PROA    15              0.0000000000
       645        41  ALA       HA             -6.6001691276        7.0608583233       -2.1201780982  P2PROA    15              0.0000000000
       646        41  ALA       CB             -5.0732566259        8.5059458885       -1.7663996268  P2PROA    15              0.0000000000
       647        41  ALA       HB1            -4.0588329086        8.5519638793       -1.3156803501  P2PROA    15              0.0000000000
       648        41  ALA       HB2            -5.7399645897        9.1996633314       -1.2109622307  P2PROA    15              0.0000000000
       649        41  ALA       HB3            -5.0041422617        8.8237934281       -2.8286850154  P2PROA    15              0.0000000000
       650        41  ALA       C              -4.7425196491        6.1474900267       -2.4843996268  P2PROA    15              0.0000000000
       651        41  ALA       O              -5.1298649856        5.8323510251       -3.6353996268  P2PROA    15              0.0000000000
       652        42  LEU       N              -3.6691899093        5.6564296742       -1.9373996268  P2PROA    16              0.0000000000
       653        42  LEU       HN             -3.3644667684        5.9657589410       -1.0406625388  P2PROA    16              0.0000000000
       654        42  LEU       CA             -2.8342122374        4.6464730973       -2.5493996268  P2PROA    16              0.0000000000
       655        42  LEU       HA             -2.5433075312        4.9985396808       -3.5279717674  P2PROA    16              0.0000000000
       656        42  LEU       CB             -1.6114527997        4.3891321607       -1.6963996268  P2PROA    16              0.0000000000
       657        42  LEU       HB1            -1.9687565038        4.1334810059       -0.6778115090  P2PROA    16              0.0000000000
       658        42  LEU       HB2            -1.0361482353        5.3365366595       -1.6517389338  P2PROA    16              0.0000000000
       659        42  LEU       CG             -0.6459920982        3.2950317842       -2.1233996268  P2PROA    16              0.0000000000
       660        42  LEU       HG             -1.1883370763        2.3328424126       -2.2432934084  P2PROA    16              0.0000000000
       661        42  LEU       CD1            -0.0167844683        3.7249733599       -3.4763996268  P2PROA    16              0.0000000000
       662        42  LEU       HD11            0.5256494626        4.6871248693       -3.3566043701  P2PROA    16              0.0000000000
       663        42  LEU       HD12           -0.8140088919        3.8597356855       -4.2383224804  P2PROA    16              0.0000000000
       664        42  LEU       HD13            0.7033148943        2.9523556355       -3.8210340141  P2PROA    16              0.0000000000
       665        42  LEU       CD2             0.4416410736        3.1623740152       -1.0623996268  P2PROA    16              0.0000000000
       666        42  LEU       HD21           -0.0108171960        2.8977768346       -0.0828125473  P2PROA    16              0.0000000000
       667        42  LEU       HD22            0.9837063422        4.1260480043       -0.9539939633  P2PROA    16              0.0000000000
       668        42  LEU       HD23            1.1558349795        2.3618265461       -1.3510255357  P2PROA    16              0.0000000000
       669        42  LEU       C              -3.5689433753        3.3617088562       -2.8933996268  P2PROA    16              0.0000000000
       670        42  LEU       O              -3.2704309784        2.6931010871       -3.9083996268  P2PROA    16              0.0000000000
       671        43  ILE       N              -4.4461092952        2.9341519022       -1.9933996268  P2PROA    17              0.0000000000
       672        43  ILE       HN             -4.5588684172        3.4105695294       -1.1257695423  P2PROA    17              0.0000000000
       673        43  ILE       CA             -5.2962818430        1.7824676404       -2.1643996268  P2PROA    17              0.0000000000
       674        43  ILE       HA             -4.6543672802        0.9716793719       -2.4730673991  P2PROA    17              0.0000000000
       675        43  ILE       CB             -6.1087299245        1.3332403984       -0.9283996268  P2PROA    17              0.0000000000
       676        43  ILE       HB             -6.5904725394        2.2278916904       -0.4806084379  P2PROA    17              0.0000000000
       677        43  ILE       CG2            -7.2020194857        0.2960904886       -1.2393996268  P2PROA    17              0.0000000000
       678        43  ILE       HG21           -6.7471144539       -0.6195046828       -1.6742190078  P2PROA    17              0.0000000000
       679        43  ILE       HG22           -7.9239321454        0.7157896617       -1.9721675414  P2PROA    17              0.0000000000
       680        43  ILE       HG23           -7.7358509521        0.0178133316       -0.3056759578  P2PROA    17              0.0000000000
       681        43  ILE       CG1            -5.0522422265        0.7230316274        0.0786003732  P2PROA    17              0.0000000000
       682        43  ILE       HG11           -4.3623259280        1.5364449388        0.3861209770  P2PROA    17              0.0000000000
       683        43  ILE       HG12           -4.4741255280       -0.0556919057       -0.4613675683  P2PROA    17              0.0000000000
       684        43  ILE       CD             -5.6310578076        0.0876596709        1.3486003732  P2PROA    17              0.0000000000
       685        43  ILE       HD1            -6.1655319421       -0.8528691468        1.0954918141  P2PROA    17              0.0000000000
       686        43  ILE       HD2            -6.3500691890        0.7864515938        1.8271049004  P2PROA    17              0.0000000000
       687        43  ILE       HD3            -4.8113311298       -0.1505421460        2.0596293240  P2PROA    17              0.0000000000
       688        43  ILE       C              -6.2102571706        1.9134069420       -3.4263996268  P2PROA    17              0.0000000000
       689        43  ILE       O              -6.1716510440        0.9173198138       -4.1273996268  P2PROA    17              0.0000000000
       690        44  SER       N              -6.8569407863        3.0064258353       -3.5773996268  P2PROA    18              0.0000000000
       691        44  SER       HN             -6.8073734276        3.6986910786       -2.8649907839  P2PROA    18              0.0000000000
       692        44  SER       CA             -7.6851053743        3.3967288139       -4.6823996268  P2PROA    18              0.0000000000
       693        44  SER       HA             -8.4096805566        2.6120875509       -4.8414974725  P2PROA    18              0.0000000000
       694        44  SER       CB             -8.3877816034        4.6994947626       -4.4313996268  P2PROA    18              0.0000000000
       695        44  SER       HB1            -7.6450593762        5.4861827353       -4.1788771409  P2PROA    18              0.0000000000
       696        44  SER       HB2            -9.1055318170        4.5852043404       -3.5911293076  P2PROA    18              0.0000000000
       697        44  SER       OG             -9.1058365295        5.0975991748       -5.6053996268  P2PROA    18              0.0000000000
       698        44  SER       HG1            -9.9193916276        4.5879673732       -5.6035210256  P2PROA    18              0.0000000000
       699        44  SER       C              -6.8732787319        3.4223706291       -6.0083996268  P2PROA    18              0.0000000000
       700        44  SER       O              -7.3222997951        2.8031969178       -6.9503996268  P2PROA    18              0.0000000000
       701        45  TRP       N              -5.7191540234        3.9942807245       -5.9953996268  P2PROA    19              0.0000000000
       702        45  TRP       HN             -5.4582996082        4.5610976338       -5.2199026799  P2PROA    19              0.0000000000
       703        45  TRP       CA             -4.7096295093        3.9103983346       -7.0153996268  P2PROA    19              0.0000000000
       704        45  TRP       HA             -5.1393279451        4.2809262407       -7.9341439895  P2PROA    19              0.0000000000
       705        45  TRP       CB             -3.4601983695        4.7259612243       -6.6533996268  P2PROA    19              0.0000000000
       706        45  TRP       HB1            -3.0139660138        4.2847185595       -5.7375990455  P2PROA    19              0.0000000000
       707        45  TRP       HB2            -3.7785754109        5.7679060984       -6.4401016004  P2PROA    19              0.0000000000
       708        45  TRP       CG             -2.3802281883        4.7849053305       -7.7043996268  P2PROA    19              0.0000000000
       709        45  TRP       CD1            -2.3164279922        5.8482973254       -8.5903996268  P2PROA    19              0.0000000000
       710        45  TRP       HD1            -2.9898423759        6.6924862416       -8.6044275821  P2PROA    19              0.0000000000
       711        45  TRP       NE1            -1.2612881478        5.6581923313       -9.4473996268  P2PROA    19              0.0000000000
       712        45  TRP       HE1            -1.0188871709        6.2665199125      -10.1707023906  P2PROA    19              0.0000000000
       713        45  TRP       CE2            -0.5950935072        4.5001402165       -9.1503996268  P2PROA    19              0.0000000000
       714        45  TRP       CD2            -1.3159520873        3.8980065872       -8.0593996268  P2PROA    19              0.0000000000
       715        45  TRP       CE3            -0.8593983380        2.6597753188       -7.6283996268  P2PROA    19              0.0000000000
       716        45  TRP       HE3            -1.3611997463        2.1248569859       -6.8358195918  P2PROA    19              0.0000000000
       717        45  TRP       CZ3             0.2484679068        2.0997785477       -8.2153996268  P2PROA    19              0.0000000000
       718        45  TRP       HZ3             0.6034604130        1.1531801774       -7.8369506050  P2PROA    19              0.0000000000
       719        45  TRP       CZ2             0.5167113227        3.9471067453       -9.7233996268  P2PROA    19              0.0000000000
       720        45  TRP       HZ2             1.0664596175        4.4536953375      -10.5028393040  P2PROA    19              0.0000000000
       721        45  TRP       CH2             0.9418433065        2.6898840934       -9.2773996268  P2PROA    19              0.0000000000
       722        45  TRP       HH2             1.7802936021        2.1904604548       -9.7396082901  P2PROA    19              0.0000000000
       723        45  TRP       C              -4.4354153717        2.5041662745       -7.4243996268  P2PROA    19              0.0000000000
       724        45  TRP       O              -4.4247518755        2.2224034490       -8.6873996268  P2PROA    19              0.0000000000
       725        46  ILE       N              -4.0199814864        1.5913488301       -6.5773996268  P2PROA    20              0.0000000000
       726        46  ILE       HN             -3.8928658742        1.8286149520       -5.6191133527  P2PROA    20              0.0000000000
       727        46  ILE       CA             -3.7107062417        0.2227295174       -6.8793996268  P2PROA    20              0.0000000000
       728        46  ILE       HA             -2.8767640815        0.2242406622       -7.5652105796  P2PROA    20              0.0000000000
       729        46  ILE       CB             -3.3479025142       -0.6247039344       -5.6053996268  P2PROA    20              0.0000000000
       730        46  ILE       HB             -4.1562581157       -0.5016482581       -4.8538774032  P2PROA    20              0.0000000000
       731        46  ILE       CG2            -3.1774301165       -2.1331008191       -5.9083996268  P2PROA    20              0.0000000000
       732        46  ILE       HG21           -2.4946102190       -2.2739899441       -6.7734015007  P2PROA    20              0.0000000000
       733        46  ILE       HG22           -4.1625029278       -2.5824985239       -6.1572517120  P2PROA    20              0.0000000000
       734        46  ILE       HG23           -2.7429647459       -2.6493494049       -5.0258004312  P2PROA    20              0.0000000000
       735        46  ILE       CG1            -2.0021244030       -0.0003536518       -5.0263996268  P2PROA    20              0.0000000000
       736        46  ILE       HG11           -2.0159441861        1.1056904830       -5.1302632812  P2PROA    20              0.0000000000
       737        46  ILE       HG12           -1.1245116868       -0.4013998957       -5.5770992763  P2PROA    20              0.0000000000
       738        46  ILE       CD             -1.9201901366       -0.4120413684       -3.4743996268  P2PROA    20              0.0000000000
       739        46  ILE       HD1            -1.9080159426       -1.5183352490       -3.3729765593  P2PROA    20              0.0000000000
       740        46  ILE       HD2            -2.8043737303       -0.0157480914       -2.9308693959  P2PROA    20              0.0000000000
       741        46  ILE       HD3            -0.9902598486       -0.0042861670       -3.0236009401  P2PROA    20              0.0000000000
       742        46  ILE       C              -4.8917044647       -0.4718460345       -7.5903996268  P2PROA    20              0.0000000000
       743        46  ILE       O              -4.6600257116       -1.2301770674       -8.5653996268  P2PROA    20              0.0000000000
       744        47  LYS       N              -6.0454293894       -0.2305748216       -7.0433996268  P2PROA    21              0.0000000000
       745        47  LYS       HN             -6.1439102320        0.3188466129       -6.2173251627  P2PROA    21              0.0000000000
       746        47  LYS       CA             -7.2631295985       -0.7584831475       -7.6193996268  P2PROA    21              0.0000000000
       747        47  LYS       HA             -7.1174006444       -1.8216751306       -7.7357948076  P2PROA    21              0.0000000000
       748        47  LYS       CB             -8.5286261643       -0.5137333937       -6.8083996268  P2PROA    21              0.0000000000
       749        47  LYS       HB1            -9.4287469575       -0.7569287469       -7.4124807638  P2PROA    21              0.0000000000
       750        47  LYS       HB2            -8.5858353347        0.5495423908       -6.4914656286  P2PROA    21              0.0000000000
       751        47  LYS       CG             -8.4411738827       -1.4478362244       -5.5633996268  P2PROA    21              0.0000000000
       752        47  LYS       HG1            -7.4609490988       -1.3105904082       -5.0588325659  P2PROA    21              0.0000000000
       753        47  LYS       HG2            -8.5354405356       -2.5080316135       -5.8817775392  P2PROA    21              0.0000000000
       754        47  LYS       CD             -9.5849846775       -1.0915401880       -4.5883996268  P2PROA    21              0.0000000000
       755        47  LYS       HD1           -10.5698355790       -1.3321071215       -5.0427954800  P2PROA    21              0.0000000000
       756        47  LYS       HD2            -9.5591016436       -0.0088506849       -4.3406238262  P2PROA    21              0.0000000000
       757        47  LYS       CE             -9.3600295781       -1.9287875847       -3.3343996268  P2PROA    21              0.0000000000
       758        47  LYS       HE1            -8.3725498197       -1.6830399099       -2.8886885577  P2PROA    21              0.0000000000
       759        47  LYS       HE2            -9.4058881282       -3.0092326183       -3.5887656476  P2PROA    21              0.0000000000
       760        47  LYS       NZ            -10.4059841531       -1.6554141642       -2.3083996268  P2PROA    21              0.0000000000
       761        47  LYS       HZ1           -11.3424944813       -1.8863004758       -2.6972953924  P2PROA    21              0.0000000000
       762        47  LYS       HZ2           -10.3784485166       -0.6497832476       -2.0446802979  P2PROA    21              0.0000000000
       763        47  LYS       HZ3           -10.2267063404       -2.2391054339       -1.4665186354  P2PROA    21              0.0000000000
       764        47  LYS       C              -7.4551493175       -0.2753377993       -9.0713996268  P2PROA    21              0.0000000000
       765        47  LYS       O              -7.7514365671       -1.2439945319       -9.8223996268  P2PROA    21              0.0000000000
       766        48  ARG       N              -7.2222587768        0.9509113581       -9.4323996268  P2PROA    22              0.0000000000
       767        48  ARG       HN             -6.9662517773        1.6187810323       -8.7411129843  P2PROA    22              0.0000000000
       768        48  ARG       CA             -7.2863582853        1.5099080066      -10.7673996268  P2PROA    22              0.0000000000
       769        48  ARG       HA             -8.2467752830        1.2467985747      -11.1848922729  P2PROA    22              0.0000000000
       770        48  ARG       CB             -7.1146940117        3.0361794035      -10.7743996268  P2PROA    22              0.0000000000
       771        48  ARG       HB1            -6.9526000798        3.3972762677      -11.8125015423  P2PROA    22              0.0000000000
       772        48  ARG       HB2            -6.2397015989        3.3247030099      -10.1535426534  P2PROA    22              0.0000000000
       773        48  ARG       CG             -8.3927203112        3.6487647263      -10.1983996268  P2PROA    22              0.0000000000
       774        48  ARG       HG1            -8.4459642378        3.4235697348       -9.1119949512  P2PROA    22              0.0000000000
       775        48  ARG       HG2            -9.2723559279        3.1952586263      -10.7027766864  P2PROA    22              0.0000000000
       776        48  ARG       CD             -8.4271718212        5.1112451855      -10.3903996268  P2PROA    22              0.0000000000
       777        48  ARG       HD1            -9.1902132274        5.5391489479       -9.7062556097  P2PROA    22              0.0000000000
       778        48  ARG       HD2            -8.6987107317        5.3222755106      -11.4463918975  P2PROA    22              0.0000000000
       779        48  ARG       NE             -7.1643660018        5.8468636073      -10.1253996268  P2PROA    22              0.0000000000
       780        48  ARG       HE             -6.4694309188        5.9542817212      -10.8361180166  P2PROA    22              0.0000000000
       781        48  ARG       CZ             -6.9863089339        6.3688441439       -8.8833996268  P2PROA    22              0.0000000000
       782        48  ARG       NH1            -7.8115394259        6.2037271094       -7.8433996268  P2PROA    22              0.0000000000
       783        48  ARG       HH11           -8.6420786141        5.6563235531       -7.9461323055  P2PROA    22              0.0000000000
       784        48  ARG       HH12           -7.5978290385        6.6277118833       -6.9633060058  P2PROA    22              0.0000000000
       785        48  ARG       NH2            -5.8816866133        7.0847907402       -8.6373996268  P2PROA    22              0.0000000000
       786        48  ARG       HH21           -5.2064284498        7.2268551260       -9.3611703936  P2PROA    22              0.0000000000
       787        48  ARG       HH22           -5.7320680784        7.4773594626       -7.7299283643  P2PROA    22              0.0000000000
       788        48  ARG       C              -6.3245847495        0.8602121809      -11.7003996268  P2PROA    22              0.0000000000
       789        48  ARG       O              -6.6579887201        0.4352900794      -12.8593996268  P2PROA    22              0.0000000000
       790        49  LYS       N              -5.1163777173        0.6685464109      -11.2503996268  P2PROA    23              0.0000000000
       791        49  LYS       HN             -4.8710228046        0.9376164506      -10.3231710828  P2PROA    23              0.0000000000
       792        49  LYS       CA             -4.0439506691        0.0722996280      -12.0073996268  P2PROA    23              0.0000000000
       793        49  LYS       HA             -3.9959668077        0.5553485637      -12.9720515639  P2PROA    23              0.0000000000
       794        49  LYS       CB             -2.7457335657        0.2571058849      -11.2503996268  P2PROA    23              0.0000000000
       795        49  LYS       HB1            -2.0326060611       -0.5380214988      -11.5553060209  P2PROA    23              0.0000000000
       796        49  LYS       HB2            -2.9449721639        0.1628464691      -10.1617465844  P2PROA    23              0.0000000000
       797        49  LYS       CG             -2.1090436575        1.6386839539      -11.5283996268  P2PROA    23              0.0000000000
       798        49  LYS       HG1            -1.6169341433        2.0401475330      -10.6170364480  P2PROA    23              0.0000000000
       799        49  LYS       HG2            -2.8738526069        2.3665185582      -11.8737279959  P2PROA    23              0.0000000000
       800        49  LYS       CD             -1.0618051926        1.3553932946      -12.6493996268  P2PROA    23              0.0000000000
       801        49  LYS       HD1            -1.5160908303        0.6885443327      -13.4128326255  P2PROA    23              0.0000000000
       802        49  LYS       HD2            -0.1809781669        0.8448870910      -12.2050798218  P2PROA    23              0.0000000000
       803        49  LYS       CE             -0.6129250872        2.6283597713      -13.3103996268  P2PROA    23              0.0000000000
       804        49  LYS       HE1            -0.4407109700        3.4043527200      -12.5343608791  P2PROA    23              0.0000000000
       805        49  LYS       HE2            -1.3946342642        2.9677345582      -14.0230106098  P2PROA    23              0.0000000000
       806        49  LYS       NZ              0.6803073359        2.4793634624      -14.0953996268  P2PROA    23              0.0000000000
       807        49  LYS       HZ1             0.5523521931        1.7683454551      -14.8435178492  P2PROA    23              0.0000000000
       808        49  LYS       HZ2             1.4414933716        2.1757240699      -13.4550883163  P2PROA    23              0.0000000000
       809        49  LYS       HZ3             0.9325480501        3.3925191226      -14.5244928550  P2PROA    23              0.0000000000
       810        49  LYS       C              -4.2707228556       -1.4457792156      -12.2913996268  P2PROA    23              0.0000000000
       811        49  LYS       O              -3.7468779331       -1.9638105826      -13.3033996268  P2PROA    23              0.0000000000
       812        50  ARG       N              -4.9400855461       -2.1092086306      -11.3523996268  P2PROA    24              0.0000000000
       813        50  ARG       HN             -5.2634608822       -1.6547932973      -10.5264719860  P2PROA    24              0.0000000000
       814        50  ARG       CA             -5.2562736831       -3.5456922058      -11.4483996268  P2PROA    24              0.0000000000
       815        50  ARG       HA             -4.3765747178       -4.0571026209      -11.8099613769  P2PROA    24              0.0000000000
       816        50  ARG       CB             -5.6799577985       -4.1160085833      -10.0613996268  P2PROA    24              0.0000000000
       817        50  ARG       HB1            -6.4152116045       -4.9365993743      -10.2037065533  P2PROA    24              0.0000000000
       818        50  ARG       HB2            -6.1513534652       -3.3129659119       -9.4554893529  P2PROA    24              0.0000000000
       819        50  ARG       CG             -4.4310170614       -4.6581451299       -9.3253996268  P2PROA    24              0.0000000000
       820        50  ARG       HG1            -3.6448884944       -3.8734730784       -9.3068634486  P2PROA    24              0.0000000000
       821        50  ARG       HG2            -4.0400118935       -5.5452574056       -9.8678005037  P2PROA    24              0.0000000000
       822        50  ARG       CD             -4.7750075340       -5.0449106335       -7.9303996268  P2PROA    24              0.0000000000
       823        50  ARG       HD1            -5.0736698102       -4.1336642806       -7.3699538234  P2PROA    24              0.0000000000
       824        50  ARG       HD2            -3.8835535504       -5.5093719205       -7.4579019262  P2PROA    24              0.0000000000
       825        50  ARG       NE             -5.8713764467       -6.0021949211       -7.7923996268  P2PROA    24              0.0000000000
       826        50  ARG       HE             -6.8150095667       -5.6791007005       -7.7205963968  P2PROA    24              0.0000000000
       827        50  ARG       CZ             -5.6019824855       -7.3275767128       -7.7623996268  P2PROA    24              0.0000000000
       828        50  ARG       NH1            -4.3730482056       -7.6918095167       -7.9993996268  P2PROA    24              0.0000000000
       829        50  ARG       HH11           -4.0931525294       -8.6389258805       -7.8424633212  P2PROA    24              0.0000000000
       830        50  ARG       HH12           -3.7101486020       -7.0241197862       -8.3381540206  P2PROA    24              0.0000000000
       831        50  ARG       NH2            -6.4948549218       -8.2460127816       -7.3733996268  P2PROA    24              0.0000000000
       832        50  ARG       HH21           -7.4103956817       -7.9634815453       -7.0871109305  P2PROA    24              0.0000000000
       833        50  ARG       HH22           -6.2462933686       -9.2146193582       -7.3691037997  P2PROA    24              0.0000000000
       834        50  ARG       C              -6.3183401821       -3.7273532960      -12.5113996268  P2PROA    24              0.0000000000
       835        50  ARG       O              -6.2058116992       -4.7227438428      -13.2833996268  P2PROA    24              0.0000000000
       836        51  GLN       N              -7.2700965330       -2.8730782534      -12.6183996268  P2PROA    25              0.0000000000
       837        51  GLN       HN             -7.3486430718       -2.0826501521      -12.0159436438  P2PROA    25              0.0000000000
       838        51  GLN       CA             -8.3325684397       -3.0188947395      -13.6713996268  P2PROA    25              0.0000000000
       839        51  GLN       HA             -8.5329840777       -4.0711229351      -13.8086925772  P2PROA    25              0.0000000000
       840        51  GLN       CB             -9.5993532617       -2.2828443237      -13.2243996268  P2PROA    25              0.0000000000
       841        51  GLN       HB1           -10.3938768900       -2.3810524741      -13.9947188030  P2PROA    25              0.0000000000
       842        51  GLN       HB2            -9.3830824224       -1.2044426940      -13.0676159573  P2PROA    25              0.0000000000
       843        51  GLN       CG            -10.0536837155       -2.9357791128      -11.9003996268  P2PROA    25              0.0000000000
       844        51  GLN       HG1            -9.1566813759       -3.1552507008      -11.2833153975  P2PROA    25              0.0000000000
       845        51  GLN       HG2           -10.5789447375       -3.8865815979      -12.1320230587  P2PROA    25              0.0000000000
       846        51  GLN       CD            -10.9818166254       -2.0661439585      -11.0943996268  P2PROA    25              0.0000000000
       847        51  GLN       OE1           -11.2318249053       -2.3314378708       -9.9113996268  P2PROA    25              0.0000000000
       848        51  GLN       NE2           -11.4588244398       -1.0001643409      -11.7503996268  P2PROA    25              0.0000000000
       849        51  GLN       HE21          -12.0826968307       -0.3681475151      -11.2906845284  P2PROA    25              0.0000000000
       850        51  GLN       HE22          -11.1910683738       -0.8363603594      -12.6998599708  P2PROA    25              0.0000000000
       851        51  GLN       C              -7.8657902070       -2.6303499139      -15.0443996268  P2PROA    25              0.0000000000
       852        51  GLN       O              -8.4640249367       -3.0238130102      -16.0723996268  P2PROA    25              0.0000000000
       853        52  GLN       N              -6.8227225670       -1.8221427014      -15.1443996268  P2PROA    26              0.0000000000
       854        52  GLN       HN             -6.4832562553       -1.3305938708      -14.3472466364  P2PROA    26              0.0000000000
       855        52  GLN       CA             -6.0829694402       -1.5684670985      -16.3753996268  P2PROA    26              0.0000000000
       856        52  GLN       HA             -6.8210846492       -1.3919292424      -17.1425787782  P2PROA    26              0.0000000000
       857        52  GLN       CB             -5.1085321629       -0.4123922771      -16.3633996268  P2PROA    26              0.0000000000
       858        52  GLN       HB1            -4.4734227928       -0.4879981215      -17.2707435924  P2PROA    26              0.0000000000
       859        52  GLN       HB2            -4.4658969205       -0.5130972710      -15.4638265742  P2PROA    26              0.0000000000
       860        52  GLN       CG             -5.7411569537        0.9817235265      -16.3413996268  P2PROA    26              0.0000000000
       861        52  GLN       HG1            -6.5392408823        1.0335029101      -15.5702951683  P2PROA    26              0.0000000000
       862        52  GLN       HG2            -6.1769537736        1.2257307370      -17.3337517622  P2PROA    26              0.0000000000
       863        52  GLN       CD             -4.6141932302        1.9768490291      -16.0013996268  P2PROA    26              0.0000000000
       864        52  GLN       OE1            -3.4540681047        1.7468931788      -16.4243996268  P2PROA    26              0.0000000000
       865        52  GLN       NE2            -5.0042820980        2.9649434959      -15.2033996268  P2PROA    26              0.0000000000
       866        52  GLN       HE21           -5.9515512826        3.0067173370      -14.8856953018  P2PROA    26              0.0000000000
       867        52  GLN       HE22           -4.3506113941        3.6668541287      -14.9204931499  P2PROA    26              0.0000000000
       868        52  GLN       C              -5.3415139168       -2.8047036077      -16.8893996268  P2PROA    26              0.0000000000
       869        52  GLN       O              -5.6848171351       -2.9241686666      -18.0983996268  P2PROA    26              0.0000000000
       870        52  GLN       NT             -4.5412248229       -3.4470368579      -15.9969057266  P2PROA    26              0.0000000000
       871        52  GLN       HT1            -4.4617419631       -3.1054476597      -15.0604233217  P2PROA    26              0.0000000000
       872        52  GLN       HT2            -4.0322598195       -4.2609299165      -16.2771426167  P2PROA    26              0.0000000000
