* GENERATED BY CHARMM-GUI (HTTP://WWW.CHARMM-GUI.ORG) V3.7 ON DEC, 01. 2025. JOB
* GET A DIFFERENT CONFORMATION FOR LIPIDS PENETRATING PROTEIN / CHOL
*  DATE:    12/ 1/25      8: 4: 6      CREATED BY USER: charmm-gui
*
     12596  EXT
         1         1  POPC      N             -13.3508727016       -8.7410421898       20.8778073315  MEMB      1               0.0000000000
         2         1  POPC      C12           -14.9020768558       -8.8856924952       20.6653341326  MEMB      1               0.0000000000
         3         1  POPC      H12A          -15.3310666493       -8.3861415478       21.5213810881  MEMB      1               0.0000000000
         4         1  POPC      H12B          -15.1012860280       -9.9238541132       20.8865494270  MEMB      1               0.0000000000
         5         1  POPC      C13           -13.0243640966       -9.6937530285       21.9305806992  MEMB      1               0.0000000000
         6         1  POPC      H13A          -13.3936044127      -10.6831792065       21.7045336923  MEMB      1               0.0000000000
         7         1  POPC      H13B          -11.9985272387       -9.7944508833       22.2529451769  MEMB      1               0.0000000000
         8         1  POPC      H13C          -13.5828331715       -9.3069321326       22.7701530069  MEMB      1               0.0000000000
         9         1  POPC      C14           -12.6639545846       -9.0805401981       19.6419273698  MEMB      1               0.0000000000
        10         1  POPC      H14A          -13.1634595596       -8.4777186045       18.8979510132  MEMB      1               0.0000000000
        11         1  POPC      H14B          -11.6026670108       -8.8828090603       19.6107617242  MEMB      1               0.0000000000
        12         1  POPC      H14C          -12.9462072702      -10.0627183843       19.2925575570  MEMB      1               0.0000000000
        13         1  POPC      C15           -13.0014767606       -7.3514536213       21.2625729312  MEMB      1               0.0000000000
        14         1  POPC      H15A          -13.5566388767       -7.0999227126       22.1541599355  MEMB      1               0.0000000000
        15         1  POPC      H15B          -13.2081219189       -6.6885931001       20.4353404547  MEMB      1               0.0000000000
        16         1  POPC      H15C          -11.9318943030       -7.3015395777       21.4036470197  MEMB      1               0.0000000000
        17         1  POPC      C11           -15.4881374431       -8.7694594555       19.2483804405  MEMB      1               0.0000000000
        18         1  POPC      H11A          -16.5962757095       -8.8491426127       19.2494469407  MEMB      1               0.0000000000
        19         1  POPC      H11B          -15.0995978781       -9.6240219010       18.6541742044  MEMB      1               0.0000000000
        20         1  POPC      P             -15.5795012475       -7.4142670893       17.0579211292  MEMB      1               0.0000000000
        21         1  POPC      O13           -15.6860189495       -5.9375734380       16.7599636530  MEMB      1               0.0000000000
        22         1  POPC      O14           -16.8572481441       -8.2053035309       16.9416366272  MEMB      1               0.0000000000
        23         1  POPC      O12           -15.0093285561       -7.6267849929       18.5144494759  MEMB      1               0.0000000000
        24         1  POPC      O11           -14.4929309633       -8.0627801362       16.0994262100  MEMB      1               0.0000000000
        25         1  POPC      C1            -13.1064119421       -7.9873664957       16.5015309985  MEMB      1               0.0000000000
        26         1  POPC      HA            -12.7212449789       -8.6507025746       17.3052429247  MEMB      1               0.0000000000
        27         1  POPC      HB            -12.9735652909       -6.9809476088       16.9529663975  MEMB      1               0.0000000000
        28         1  POPC      C2            -12.0767475429       -8.1964082618       15.3710165877  MEMB      1               0.0000000000
        29         1  POPC      HS            -11.2994870799       -7.4026193231       15.3803200635  MEMB      1               0.0000000000
        30         1  POPC      O21           -12.6526395825       -8.0908265935       14.0170221497  MEMB      1               0.0000000000
        31         1  POPC      C21           -13.0524921578       -6.8697088699       13.6715715601  MEMB      1               0.0000000000
        32         1  POPC      O22           -12.9631379561       -5.8693042424       14.3120554494  MEMB      1               0.0000000000
        33         1  POPC      C22           -13.3830503863       -7.0718793486       12.2223269723  MEMB      1               0.0000000000
        34         1  POPC      H2R           -14.3638158795       -7.5925689703       12.1862381835  MEMB      1               0.0000000000
        35         1  POPC      H2S           -12.5732527157       -7.6300647123       11.7056275050  MEMB      1               0.0000000000
        36         1  POPC      C3            -11.3554036819       -9.5443223598       15.3919667252  MEMB      1               0.0000000000
        37         1  POPC      HX            -12.0308821255      -10.4215894131       15.3000302332  MEMB      1               0.0000000000
        38         1  POPC      HY            -10.9010193576       -9.7105807366       16.3920735305  MEMB      1               0.0000000000
        39         1  POPC      O31           -10.3859643292       -9.5894325243       14.4034040735  MEMB      1               0.0000000000
        40         1  POPC      C31           -10.4375738567      -10.6008745149       13.4915618259  MEMB      1               0.0000000000
        41         1  POPC      O32           -11.3308304963      -11.4368472002       13.4704766609  MEMB      1               0.0000000000
        42         1  POPC      C32            -9.3747411266      -10.4073905534       12.4160572639  MEMB      1               0.0000000000
        43         1  POPC      H2X            -8.3769793305      -10.7715227225       12.7419409391  MEMB      1               0.0000000000
        44         1  POPC      H2Y            -9.2629487914       -9.3454581247       12.1092621824  MEMB      1               0.0000000000
        45         1  POPC      C23           -13.6325165583       -5.6750044907       11.6150405429  MEMB      1               0.0000000000
        46         1  POPC      H3R           -12.8068107639       -5.0100587187       11.9472719691  MEMB      1               0.0000000000
        47         1  POPC      H3S           -14.5716032646       -5.1975448945       11.9678426075  MEMB      1               0.0000000000
        48         1  POPC      C24           -13.6992936359       -5.6541205182       10.0780654109  MEMB      1               0.0000000000
        49         1  POPC      H4R           -14.1728630717       -4.6772975046        9.8416985514  MEMB      1               0.0000000000
        50         1  POPC      H4S           -14.3222403324       -6.4807471073        9.6743987727  MEMB      1               0.0000000000
        51         1  POPC      C25           -12.2771338536       -5.6291465804        9.4136548659  MEMB      1               0.0000000000
        52         1  POPC      H5R           -11.5522601177       -6.2816818678        9.9457049522  MEMB      1               0.0000000000
        53         1  POPC      H5S           -11.9455249989       -4.5707771472        9.4785436846  MEMB      1               0.0000000000
        54         1  POPC      C26           -12.5020184118       -5.8379645314        7.8779020871  MEMB      1               0.0000000000
        55         1  POPC      H6R           -13.1127286166       -4.9714405997        7.5455013751  MEMB      1               0.0000000000
        56         1  POPC      H6S           -13.1494951410       -6.7381235145        7.9472466736  MEMB      1               0.0000000000
        57         1  POPC      C27           -11.3224279714       -5.9710391568        6.9554909665  MEMB      1               0.0000000000
        58         1  POPC      H7R           -10.5796547373       -6.7056221993        7.3336401023  MEMB      1               0.0000000000
        59         1  POPC      H7S           -10.8947778143       -4.9471671238        6.8996125015  MEMB      1               0.0000000000
        60         1  POPC      C28           -11.7652674260       -6.2574951929        5.5502747079  MEMB      1               0.0000000000
        61         1  POPC      H8R           -12.2489136897       -5.3155086121        5.2140180353  MEMB      1               0.0000000000
        62         1  POPC      H8S           -12.4045366330       -7.1588250982        5.4351228262  MEMB      1               0.0000000000
        63         1  POPC      C29           -10.4830034843       -6.3491561729        4.6490518253  MEMB      1               0.0000000000
        64         1  POPC      H91           -10.0637772065       -5.4030127413        4.2761415989  MEMB      1               0.0000000000
        65         1  POPC      C210           -9.8522896561       -7.4670784930        4.2720796173  MEMB      1               0.0000000000
        66         1  POPC      H101           -9.1599174601       -7.2970571609        3.4343964275  MEMB      1               0.0000000000
        67         1  POPC      C211          -10.0932688613       -8.9276039586        4.6045030603  MEMB      1               0.0000000000
        68         1  POPC      H11R          -10.7413080679       -9.0367017018        5.5003067444  MEMB      1               0.0000000000
        69         1  POPC      H11S           -9.1787916767       -9.3829997278        5.0411575013  MEMB      1               0.0000000000
        70         1  POPC      C212          -10.7263676421       -9.6770008504        3.4826293618  MEMB      1               0.0000000000
        71         1  POPC      H12R          -10.0875770378      -10.0361241362        2.6475860471  MEMB      1               0.0000000000
        72         1  POPC      H12S          -11.5622793074       -9.0725414589        3.0700746793  MEMB      1               0.0000000000
        73         1  POPC      C213          -11.4263588306      -10.9523851494        3.8524343879  MEMB      1               0.0000000000
        74         1  POPC      H13R          -12.1513368815      -10.7996025059        4.6803140333  MEMB      1               0.0000000000
        75         1  POPC      H13S          -10.5948026368      -11.6566296690        4.0689406087  MEMB      1               0.0000000000
        76         1  POPC      C214          -12.3508527146      -11.6426741412        2.7687065356  MEMB      1               0.0000000000
        77         1  POPC      H14R          -12.2071227881      -12.7365303668        2.8996311960  MEMB      1               0.0000000000
        78         1  POPC      H14S          -12.1577915922      -11.4452722651        1.6925641957  MEMB      1               0.0000000000
        79         1  POPC      C215          -13.8057703406      -11.3803076586        3.0117633720  MEMB      1               0.0000000000
        80         1  POPC      H15R          -14.1644969835      -10.3337046591        2.9104798141  MEMB      1               0.0000000000
        81         1  POPC      H15S          -14.0731184357      -11.6896541848        4.0447937588  MEMB      1               0.0000000000
        82         1  POPC      C216          -14.7682545469      -12.1958579553        2.0337024099  MEMB      1               0.0000000000
        83         1  POPC      H16R          -14.5647377751      -13.2553122509        2.2991423262  MEMB      1               0.0000000000
        84         1  POPC      H16S          -14.4827647621      -11.9424209683        0.9903491821  MEMB      1               0.0000000000
        85         1  POPC      C217          -16.2374059623      -11.9130108953        2.4104680971  MEMB      1               0.0000000000
        86         1  POPC      H17R          -16.5162048271      -10.9317608726        1.9703079393  MEMB      1               0.0000000000
        87         1  POPC      H17S          -16.4238168581      -11.7758627538        3.4970965176  MEMB      1               0.0000000000
        88         1  POPC      C218          -17.1082394680      -13.0985386936        2.1979805838  MEMB      1               0.0000000000
        89         1  POPC      H18R          -18.1349124221      -12.9672931220        2.6017587002  MEMB      1               0.0000000000
        90         1  POPC      H18S          -16.6390466350      -13.9532114583        2.7306280139  MEMB      1               0.0000000000
        91         1  POPC      H18T          -17.1318464920      -13.4523701047        1.1450946560  MEMB      1               0.0000000000
        92         1  POPC      C33            -9.6769826245      -11.3830137820       11.2535180115  MEMB      1               0.0000000000
        93         1  POPC      H3X            -9.9675030494      -12.3544142244       11.7077202743  MEMB      1               0.0000000000
        94         1  POPC      H3Y            -8.7497180191      -11.5195404746       10.6569764843  MEMB      1               0.0000000000
        95         1  POPC      C34           -10.8237299075      -10.9673681424       10.3453111250  MEMB      1               0.0000000000
        96         1  POPC      H4X           -10.5790583575       -9.9793875574        9.8999448100  MEMB      1               0.0000000000
        97         1  POPC      H4Y           -11.7184778564      -10.7233621050       10.9570366434  MEMB      1               0.0000000000
        98         1  POPC      C35           -11.0243109776      -11.9959449491        9.1798399797  MEMB      1               0.0000000000
        99         1  POPC      H5X           -11.4534428716      -12.8535591753        9.7407899320  MEMB      1               0.0000000000
       100         1  POPC      H5Y           -10.1068931603      -12.3428014468        8.6579623216  MEMB      1               0.0000000000
       101         1  POPC      C36           -11.9751798297      -11.4622659433        8.0506960597  MEMB      1               0.0000000000
       102         1  POPC      H6X           -12.0563701698      -12.2475539252        7.2689975948  MEMB      1               0.0000000000
       103         1  POPC      H6Y           -11.6553586680      -10.5452114987        7.5112089838  MEMB      1               0.0000000000
       104         1  POPC      C37           -13.4076815509      -11.0965955333        8.4591807893  MEMB      1               0.0000000000
       105         1  POPC      H7X           -13.2858046422      -10.5033019764        9.3905621287  MEMB      1               0.0000000000
       106         1  POPC      H7Y           -13.9987943413      -11.9622182695        8.8274254195  MEMB      1               0.0000000000
       107         1  POPC      C38           -14.0615440587      -10.3002674723        7.3267317932  MEMB      1               0.0000000000
       108         1  POPC      H8X           -14.0160126765      -10.8024781240        6.3367660113  MEMB      1               0.0000000000
       109         1  POPC      H8Y           -13.4406158090       -9.3848550938        7.2228606126  MEMB      1               0.0000000000
       110         1  POPC      C39           -15.5183182052       -9.8797907069        7.6877193197  MEMB      1               0.0000000000
       111         1  POPC      H9X           -15.5704349848       -9.1318727847        8.5076114814  MEMB      1               0.0000000000
       112         1  POPC      H9Y           -15.9664769008      -10.8632522818        7.9451654020  MEMB      1               0.0000000000
       113         1  POPC      C310          -16.1888888704       -9.1913828171        6.5482950315  MEMB      1               0.0000000000
       114         1  POPC      H10X          -17.2997932509       -9.1981751253        6.5611955122  MEMB      1               0.0000000000
       115         1  POPC      H10Y          -15.8477027621       -9.8144999035        5.6941064943  MEMB      1               0.0000000000
       116         1  POPC      C311          -15.6801254917       -7.6950856705        6.2695347413  MEMB      1               0.0000000000
       117         1  POPC      H11X          -14.5795849132       -7.8068979757        6.1664355336  MEMB      1               0.0000000000
       118         1  POPC      H11Y          -15.8753606220       -7.2120988103        7.2508242995  MEMB      1               0.0000000000
       119         1  POPC      C312          -16.2553235169       -6.8570767029        5.0850017268  MEMB      1               0.0000000000
       120         1  POPC      H12X          -15.8545819192       -5.8212130926        5.1117178667  MEMB      1               0.0000000000
       121         1  POPC      H12Y          -17.3471739431       -6.8681968620        5.2900865390  MEMB      1               0.0000000000
       122         1  POPC      C313          -15.9880771867       -7.5162699231        3.7202004139  MEMB      1               0.0000000000
       123         1  POPC      H13X          -16.7399419342       -7.2505338531        2.9466336759  MEMB      1               0.0000000000
       124         1  POPC      H13Y          -16.0017291187       -8.6166823626        3.8726040666  MEMB      1               0.0000000000
       125         1  POPC      C314          -14.7090544341       -7.0744169461        2.9569713594  MEMB      1               0.0000000000
       126         1  POPC      H14X          -14.5153699761       -7.8883356600        2.2259826796  MEMB      1               0.0000000000
       127         1  POPC      H14Y          -13.8870329756       -7.1050689695        3.7037395558  MEMB      1               0.0000000000
       128         1  POPC      C315          -14.9043879902       -5.7970298915        2.1277123738  MEMB      1               0.0000000000
       129         1  POPC      H15X          -14.9794852553       -4.9127117964        2.7960410375  MEMB      1               0.0000000000
       130         1  POPC      H15Y          -15.8072971488       -5.8723711301        1.4847500191  MEMB      1               0.0000000000
       131         1  POPC      C316          -13.6899750861       -5.6075426930        1.1733813848  MEMB      1               0.0000000000
       132         1  POPC      H16X          -12.7621035318       -5.9240820530        1.6960453998  MEMB      1               0.0000000000
       133         1  POPC      H16Y          -13.5895302559       -4.5536230810        0.8365052594  MEMB      1               0.0000000000
       134         1  POPC      H16Z          -13.8149352947       -6.3062928657        0.3187137939  MEMB      1               0.0000000000
       135         2  POPC      N               9.0728724013       16.0887358090       19.5085182929  MEMB      2               0.0000000000
       136         2  POPC      C12             8.1279615359       15.0975494350       18.8530561372  MEMB      2               0.0000000000
       137         2  POPC      H12A            7.6757983508       14.5410783285       19.6606998605  MEMB      2               0.0000000000
       138         2  POPC      H12B            8.7039531148       14.5880489412       18.0947402650  MEMB      2               0.0000000000
       139         2  POPC      C13             8.5831037356       16.5207258916       20.8542754916  MEMB      2               0.0000000000
       140         2  POPC      H13A            9.3294702333       16.9638254928       21.4969259853  MEMB      2               0.0000000000
       141         2  POPC      H13B            7.7796330269       17.2285659533       20.7135726779  MEMB      2               0.0000000000
       142         2  POPC      H13C            8.1465253956       15.6840447895       21.3794078729  MEMB      2               0.0000000000
       143         2  POPC      C14            10.4001831633       15.4325475362       19.8023453595  MEMB      2               0.0000000000
       144         2  POPC      H14A           10.2993266291       14.4020127289       20.1093075481  MEMB      2               0.0000000000
       145         2  POPC      H14B           11.1558635356       15.5651074902       19.0422300784  MEMB      2               0.0000000000
       146         2  POPC      H14C           10.7497506304       15.9424460867       20.6878994427  MEMB      2               0.0000000000
       147         2  POPC      C15             9.2447155831       17.2483846867       18.5451321902  MEMB      2               0.0000000000
       148         2  POPC      H15A            9.8585949792       16.8236807614       17.7646331793  MEMB      2               0.0000000000
       149         2  POPC      H15B            9.6836216011       18.1163425943       19.0146111071  MEMB      2               0.0000000000
       150         2  POPC      H15C            8.3328401266       17.6024393744       18.0873893118  MEMB      2               0.0000000000
       151         2  POPC      C11             6.8470014391       15.6301448436       18.1748944978  MEMB      2               0.0000000000
       152         2  POPC      H11A            6.3044656989       14.8044622664       17.6667368286  MEMB      2               0.0000000000
       153         2  POPC      H11B            7.1311197551       16.2871488114       17.3252218471  MEMB      2               0.0000000000
       154         2  POPC      P               4.6800774569       17.0927065457       18.7027086781  MEMB      2               0.0000000000
       155         2  POPC      O13             5.0321587223       18.5058470072       18.6613159958  MEMB      2               0.0000000000
       156         2  POPC      O14             3.6626765273       16.5733777714       19.6375369568  MEMB      2               0.0000000000
       157         2  POPC      O12             5.9663172020       16.3266097060       19.0418832606  MEMB      2               0.0000000000
       158         2  POPC      O11             4.4312210521       16.5541189087       17.2183331006  MEMB      2               0.0000000000
       159         2  POPC      C1              3.5747774881       15.4334907440       17.0185445463  MEMB      2               0.0000000000
       160         2  POPC      HA              2.6012051028       15.4543830884       17.5533732043  MEMB      2               0.0000000000
       161         2  POPC      HB              4.0791123391       14.4910597730       17.3215153638  MEMB      2               0.0000000000
       162         2  POPC      C2              3.0492543923       15.2686813453       15.5373091128  MEMB      2               0.0000000000
       163         2  POPC      HS              2.4279241922       14.3476719853       15.5338717512  MEMB      2               0.0000000000
       164         2  POPC      O21             4.0940321450       15.1515319802       14.6834470888  MEMB      2               0.0000000000
       165         2  POPC      C21             4.8103006670       14.0546352530       14.7761552566  MEMB      2               0.0000000000
       166         2  POPC      O22             4.6811457545       13.0739239402       15.4495774577  MEMB      2               0.0000000000
       167         2  POPC      C22             5.9921657825       14.1645379430       13.7447557517  MEMB      2               0.0000000000
       168         2  POPC      H2R             6.9054809136       14.3749892167       14.3413183768  MEMB      2               0.0000000000
       169         2  POPC      H2S             5.8290788247       14.9633593021       12.9900320810  MEMB      2               0.0000000000
       170         2  POPC      C3              2.1922841347       16.4794133573       15.2205711738  MEMB      2               0.0000000000
       171         2  POPC      HX              1.4619427123       16.6326756779       16.0436343373  MEMB      2               0.0000000000
       172         2  POPC      HY              1.6714803488       16.3046977131       14.2548803884  MEMB      2               0.0000000000
       173         2  POPC      O31             2.9806119907       17.6715337840       15.2604055402  MEMB      2               0.0000000000
       174         2  POPC      C31             3.0143369278       18.5567563472       14.2837170572  MEMB      2               0.0000000000
       175         2  POPC      O32             2.3872422685       18.4984939949       13.2490810696  MEMB      2               0.0000000000
       176         2  POPC      C32             4.0820122136       19.5741809989       14.5712976146  MEMB      2               0.0000000000
       177         2  POPC      H2X             4.7522055169       19.1803922603       15.3650811692  MEMB      2               0.0000000000
       178         2  POPC      H2Y             3.5862277354       20.5046857252       14.9215543933  MEMB      2               0.0000000000
       179         2  POPC      C23             6.2392281773       12.8051075460       13.0433843026  MEMB      2               0.0000000000
       180         2  POPC      H3R             6.4730024319       11.9652613847       13.7320996905  MEMB      2               0.0000000000
       181         2  POPC      H3S             7.1502994883       12.9735101774       12.4302682939  MEMB      2               0.0000000000
       182         2  POPC      C24             5.1549003728       12.2667350958       12.0861587605  MEMB      2               0.0000000000
       183         2  POPC      H4R             4.3503889145       11.9745240274       12.7944632699  MEMB      2               0.0000000000
       184         2  POPC      H4S             5.5848420561       11.4544685116       11.4619037965  MEMB      2               0.0000000000
       185         2  POPC      C25             4.7101714706       13.3372752099       11.0803088245  MEMB      2               0.0000000000
       186         2  POPC      H5R             4.3055119079       14.1718041529       11.6919729913  MEMB      2               0.0000000000
       187         2  POPC      H5S             3.7832310157       13.1549298875       10.4956271257  MEMB      2               0.0000000000
       188         2  POPC      C26             5.7702621505       13.8295435613       10.0729729329  MEMB      2               0.0000000000
       189         2  POPC      H6R             6.6422201438       14.1754083477       10.6682784743  MEMB      2               0.0000000000
       190         2  POPC      H6S             5.3115232444       14.7028812616        9.5619341926  MEMB      2               0.0000000000
       191         2  POPC      C27             6.1099576645       12.8047899102        8.9845699517  MEMB      2               0.0000000000
       192         2  POPC      H7R             5.2657850463       12.9454590231        8.2761168768  MEMB      2               0.0000000000
       193         2  POPC      H7S             6.0396651818       11.7868128992        9.4240038132  MEMB      2               0.0000000000
       194         2  POPC      C28             7.4557593430       13.1468134291        8.3150425310  MEMB      2               0.0000000000
       195         2  POPC      H8R             7.2470120593       14.1431864220        7.8700863577  MEMB      2               0.0000000000
       196         2  POPC      H8S             7.6711644857       12.4861246000        7.4482019519  MEMB      2               0.0000000000
       197         2  POPC      C29             8.7713916202       13.1718019251        9.1071184965  MEMB      2               0.0000000000
       198         2  POPC      H91             9.1406878301       12.1994538964        9.4651117239  MEMB      2               0.0000000000
       199         2  POPC      C210            9.3203468908       14.2097196862        9.6913900299  MEMB      2               0.0000000000
       200         2  POPC      H101           10.2127076042       14.0559882437       10.3159368685  MEMB      2               0.0000000000
       201         2  POPC      C211            8.8409585386       15.6133808413        9.6882348060  MEMB      2               0.0000000000
       202         2  POPC      H11R            8.9625049004       16.0665610313       10.6952971389  MEMB      2               0.0000000000
       203         2  POPC      H11S            7.7509163054       15.7430530182        9.5170213999  MEMB      2               0.0000000000
       204         2  POPC      C212            9.6289390943       16.6067198599        8.8086378031  MEMB      2               0.0000000000
       205         2  POPC      H12R           10.6976642885       16.5596891003        9.1085298074  MEMB      2               0.0000000000
       206         2  POPC      H12S            9.1810707480       17.6117866862        8.9621809349  MEMB      2               0.0000000000
       207         2  POPC      C213            9.4473191383       16.4443129037        7.3108574391  MEMB      2               0.0000000000
       208         2  POPC      H13R            8.4056634245       16.1949913862        7.0157081144  MEMB      2               0.0000000000
       209         2  POPC      H13S           10.1259256938       15.6133524505        7.0222081688  MEMB      2               0.0000000000
       210         2  POPC      C214            9.8165376183       17.7294057627        6.5862770406  MEMB      2               0.0000000000
       211         2  POPC      H14R           10.8976301812       17.9771639941        6.6508971455  MEMB      2               0.0000000000
       212         2  POPC      H14S            9.3296550911       18.4946694918        7.2278665540  MEMB      2               0.0000000000
       213         2  POPC      C215            9.5817531577       17.7402379752        5.0773837840  MEMB      2               0.0000000000
       214         2  POPC      H15R            9.8193666912       18.7593745303        4.7042599696  MEMB      2               0.0000000000
       215         2  POPC      H15S            8.4965328811       17.6573027514        4.8543599208  MEMB      2               0.0000000000
       216         2  POPC      C216           10.3365414620       16.7603178165        4.2218396653  MEMB      2               0.0000000000
       217         2  POPC      H16R           10.0358890495       15.7523601791        4.5795418798  MEMB      2               0.0000000000
       218         2  POPC      H16S           11.4447589708       16.7537666411        4.3001471208  MEMB      2               0.0000000000
       219         2  POPC      C217            9.7645511364       16.8987528550        2.8237287920  MEMB      2               0.0000000000
       220         2  POPC      H17R           10.1769230033       17.8417655245        2.4054009304  MEMB      2               0.0000000000
       221         2  POPC      H17S            8.6576671191       16.8113647970        2.8623597737  MEMB      2               0.0000000000
       222         2  POPC      C218           10.2420253668       15.7532882081        1.8391679202  MEMB      2               0.0000000000
       223         2  POPC      H18R           11.3039564606       15.7391484190        1.5129432096  MEMB      2               0.0000000000
       224         2  POPC      H18S            9.5695264937       15.6963015181        0.9566609627  MEMB      2               0.0000000000
       225         2  POPC      H18T           10.2630145832       14.7283550016        2.2674116816  MEMB      2               0.0000000000
       226         2  POPC      C33             4.8906324524       19.9277105968       13.2645277340  MEMB      2               0.0000000000
       227         2  POPC      H3X             5.6925703375       20.6626307660       13.4906009035  MEMB      2               0.0000000000
       228         2  POPC      H3Y             4.1869901270       20.4123090420       12.5543359222  MEMB      2               0.0000000000
       229         2  POPC      C34             5.6108942169       18.6813382084       12.5758486449  MEMB      2               0.0000000000
       230         2  POPC      H4X             4.9984531315       17.8003352575       12.2876291212  MEMB      2               0.0000000000
       231         2  POPC      H4Y             6.4117689630       18.4063352766       13.2950805464  MEMB      2               0.0000000000
       232         2  POPC      C35             6.4521700244       19.0637838722       11.3197700056  MEMB      2               0.0000000000
       233         2  POPC      H5X             7.3443420065       18.4161558884       11.1821899680  MEMB      2               0.0000000000
       234         2  POPC      H5Y             6.8960370894       20.0698255579       11.4784618395  MEMB      2               0.0000000000
       235         2  POPC      C36             5.5779540075       19.2191842233       10.0190780385  MEMB      2               0.0000000000
       236         2  POPC      H6X             6.2535400532       19.6833782349        9.2691256422  MEMB      2               0.0000000000
       237         2  POPC      H6Y             4.7818295315       19.9845101818       10.1406617365  MEMB      2               0.0000000000
       238         2  POPC      C37             4.9290402652       17.9165376276        9.5026750644  MEMB      2               0.0000000000
       239         2  POPC      H7X             4.4695395500       17.3243054354       10.3227008123  MEMB      2               0.0000000000
       240         2  POPC      H7Y             5.7869857293       17.3332334545        9.1051749432  MEMB      2               0.0000000000
       241         2  POPC      C38             3.8113247818       18.1624105239        8.4272787305  MEMB      2               0.0000000000
       242         2  POPC      H8X             4.3680420112       18.5588165157        7.5513513192  MEMB      2               0.0000000000
       243         2  POPC      H8Y             2.9217794584       18.7260806702        8.7812647236  MEMB      2               0.0000000000
       244         2  POPC      C39             3.2227442210       16.8187766986        7.9252153105  MEMB      2               0.0000000000
       245         2  POPC      H9X             2.4696113385       16.4063772658        8.6302248905  MEMB      2               0.0000000000
       246         2  POPC      H9Y             4.0152880972       16.0418691814        7.8741259574  MEMB      2               0.0000000000
       247         2  POPC      C310            2.5196246597       17.0550164648        6.5642826306  MEMB      2               0.0000000000
       248         2  POPC      H10X            3.2700645084       17.3461088386        5.7984975685  MEMB      2               0.0000000000
       249         2  POPC      H10Y            1.7848506875       17.8868866771        6.6134785739  MEMB      2               0.0000000000
       250         2  POPC      C311            1.8277528945       15.7503204383        6.2456891903  MEMB      2               0.0000000000
       251         2  POPC      H11X            1.3036576709       15.8742810457        5.2739482696  MEMB      2               0.0000000000
       252         2  POPC      H11Y            1.0492568875       15.5640348733        7.0161186494  MEMB      2               0.0000000000
       253         2  POPC      C312            2.6690282067       14.5324951934        6.2380885911  MEMB      2               0.0000000000
       254         2  POPC      H12X            2.1289930539       13.8154446563        5.5834737547  MEMB      2               0.0000000000
       255         2  POPC      H12Y            2.9095106470       14.1755300104        7.2623271096  MEMB      2               0.0000000000
       256         2  POPC      C313            4.0394564310       14.7080665611        5.5285063607  MEMB      2               0.0000000000
       257         2  POPC      H13X            4.6413565125       13.8465515476        5.8888245161  MEMB      2               0.0000000000
       258         2  POPC      H13Y            4.5978982748       15.6216993168        5.8247142774  MEMB      2               0.0000000000
       259         2  POPC      C314            4.0619373023       14.6071129368        3.9976873329  MEMB      2               0.0000000000
       260         2  POPC      H14X            3.7851509349       15.5977428520        3.5777314194  MEMB      2               0.0000000000
       261         2  POPC      H14Y            3.2962456896       13.8519442935        3.7188364657  MEMB      2               0.0000000000
       262         2  POPC      C315            5.4796678238       14.3209585459        3.4846459523  MEMB      2               0.0000000000
       263         2  POPC      H15X            5.7652501048       13.2754075197        3.7287510487  MEMB      2               0.0000000000
       264         2  POPC      H15Y            6.0720432470       15.0923381517        4.0216620661  MEMB      2               0.0000000000
       265         2  POPC      C316            5.6665150110       14.5809338561        1.9439684891  MEMB      2               0.0000000000
       266         2  POPC      H16X            5.4106843164       15.6092395021        1.6101133103  MEMB      2               0.0000000000
       267         2  POPC      H16Y            5.0002285912       13.9311439306        1.3372084948  MEMB      2               0.0000000000
       268         2  POPC      H16Z            6.7466239312       14.5352511990        1.6878443133  MEMB      2               0.0000000000
       269         3  POPC      N              12.0273975328        4.9328947209       17.2734268423  MEMB      3               0.0000000000
       270         3  POPC      C12            13.2238498552        5.1683623704       18.1303897488  MEMB      3               0.0000000000
       271         3  POPC      H12A           13.6036823316        6.1303021471       17.8192641602  MEMB      3               0.0000000000
       272         3  POPC      H12B           13.9711831570        4.4011593423       17.9914925046  MEMB      3               0.0000000000
       273         3  POPC      C13            11.3076721271        6.2906671772       17.2263219198  MEMB      3               0.0000000000
       274         3  POPC      H13A           10.6470866257        6.3446955305       16.3736157983  MEMB      3               0.0000000000
       275         3  POPC      H13B           10.7496882662        6.3965603909       18.1449298171  MEMB      3               0.0000000000
       276         3  POPC      H13C           11.9568174680        7.1301014776       17.0254227918  MEMB      3               0.0000000000
       277         3  POPC      C14            12.3565519839        4.5369383120       15.8709038705  MEMB      3               0.0000000000
       278         3  POPC      H14A           12.9412535592        5.3458135421       15.4582963963  MEMB      3               0.0000000000
       279         3  POPC      H14B           12.9758763352        3.6539623847       15.9273922761  MEMB      3               0.0000000000
       280         3  POPC      H14C           11.4635839616        4.3596721053       15.2898834455  MEMB      3               0.0000000000
       281         3  POPC      C15            11.1356650022        3.8603875420       17.8175515881  MEMB      3               0.0000000000
       282         3  POPC      H15A           11.6685577382        2.9220469869       17.7734794018  MEMB      3               0.0000000000
       283         3  POPC      H15B           10.1616490338        3.8965382984       17.3523786142  MEMB      3               0.0000000000
       284         3  POPC      H15C           10.9221586147        4.0481191013       18.8594594641  MEMB      3               0.0000000000
       285         3  POPC      C11            13.1801603050        5.4041011394       19.6594327750  MEMB      3               0.0000000000
       286         3  POPC      H11A           12.7896051418        6.4000632277       19.9591780499  MEMB      3               0.0000000000
       287         3  POPC      H11B           14.2458813160        5.3182626528       19.9614121580  MEMB      3               0.0000000000
       288         3  POPC      P              13.0621014062        3.0246821437       20.7083130477  MEMB      3               0.0000000000
       289         3  POPC      O13            11.9410672577        2.1311415821       20.9323937907  MEMB      3               0.0000000000
       290         3  POPC      O14            14.0541579641        3.1810284969       21.7110863401  MEMB      3               0.0000000000
       291         3  POPC      O12            12.4565827479        4.4279121516       20.3680858445  MEMB      3               0.0000000000
       292         3  POPC      O11            13.7757555146        2.6440898051       19.3020942505  MEMB      3               0.0000000000
       293         3  POPC      C1             14.7715060729        1.6082654953       19.2791094753  MEMB      3               0.0000000000
       294         3  POPC      HA             14.4851536815        0.6728703427       19.8057582705  MEMB      3               0.0000000000
       295         3  POPC      HB             15.6717692746        1.9548721333       19.8302092751  MEMB      3               0.0000000000
       296         3  POPC      C2             14.9661170214        1.1403496579       17.8176895942  MEMB      3               0.0000000000
       297         3  POPC      HS             15.8091839605        0.4389231429       17.6400388182  MEMB      3               0.0000000000
       298         3  POPC      O21            15.0713733634        2.2840896205       16.9415476078  MEMB      3               0.0000000000
       299         3  POPC      C21            16.3225417139        2.8115803139       16.9977016679  MEMB      3               0.0000000000
       300         3  POPC      O22            17.3051014753        2.2603796273       17.3953725397  MEMB      3               0.0000000000
       301         3  POPC      C22            16.2983183425        4.2640539840       16.4832107891  MEMB      3               0.0000000000
       302         3  POPC      H2R            17.2652088160        4.7594322076       16.7156851932  MEMB      3               0.0000000000
       303         3  POPC      H2S            15.6162706609        4.9431337419       17.0381726535  MEMB      3               0.0000000000
       304         3  POPC      C3             13.7413050817        0.2251386697       17.3328848933  MEMB      3               0.0000000000
       305         3  POPC      HX             12.9099398095        0.9557257630       17.2359559300  MEMB      3               0.0000000000
       306         3  POPC      HY             13.4846776345       -0.6227264698       18.0033981711  MEMB      3               0.0000000000
       307         3  POPC      O31            13.9739442323       -0.2999731661       16.0053518800  MEMB      3               0.0000000000
       308         3  POPC      C31            12.8840834107       -0.4667708905       15.2845356659  MEMB      3               0.0000000000
       309         3  POPC      O32            11.7654707031       -0.5021478131       15.7110679265  MEMB      3               0.0000000000
       310         3  POPC      C32            13.3374565941       -0.5884266787       13.8337620860  MEMB      3               0.0000000000
       311         3  POPC      H2X            12.5561119646       -1.0354394803       13.1826085107  MEMB      3               0.0000000000
       312         3  POPC      H2Y            14.2338035031       -1.2395296101       13.7504070425  MEMB      3               0.0000000000
       313         3  POPC      C23            16.0349213441        4.2643519950       14.9900844918  MEMB      3               0.0000000000
       314         3  POPC      H3R            14.9891273701        3.9308374043       14.8186078462  MEMB      3               0.0000000000
       315         3  POPC      H3S            16.7202170860        3.6189495898       14.4000454341  MEMB      3               0.0000000000
       316         3  POPC      C24            16.0727855096        5.6869036141       14.4355307510  MEMB      3               0.0000000000
       317         3  POPC      H4R            17.0763531708        6.1268436022       14.6189048713  MEMB      3               0.0000000000
       318         3  POPC      H4S            15.3181998980        6.4193623757       14.7938955950  MEMB      3               0.0000000000
       319         3  POPC      C25            15.9551381476        5.7359362539       12.8502541950  MEMB      3               0.0000000000
       320         3  POPC      H5R            15.0309189894        5.1739890703       12.5965711153  MEMB      3               0.0000000000
       321         3  POPC      H5S            16.8393849132        5.2343629313       12.4020877723  MEMB      3               0.0000000000
       322         3  POPC      C26            15.7020273483        7.2109075162       12.2501792504  MEMB      3               0.0000000000
       323         3  POPC      H6R            16.6964543552        7.6736180377       12.4271980290  MEMB      3               0.0000000000
       324         3  POPC      H6S            14.9809056908        7.7401728807       12.9091050213  MEMB      3               0.0000000000
       325         3  POPC      C27            15.5667796758        7.2549538158       10.7378615723  MEMB      3               0.0000000000
       326         3  POPC      H7R            16.5212856927        6.8950985915       10.2976983781  MEMB      3               0.0000000000
       327         3  POPC      H7S            15.3369235909        8.3369812630       10.6344045706  MEMB      3               0.0000000000
       328         3  POPC      C28            14.3751270427        6.4409556209       10.2407525029  MEMB      3               0.0000000000
       329         3  POPC      H8R            13.4891447988        6.5734411623       10.8978695579  MEMB      3               0.0000000000
       330         3  POPC      H8S            14.6019504958        5.3624042657       10.3807493455  MEMB      3               0.0000000000
       331         3  POPC      C29            14.2835913759        6.5596276868        8.7274140722  MEMB      3               0.0000000000
       332         3  POPC      H91            13.5284746974        7.3354049257        8.5325599170  MEMB      3               0.0000000000
       333         3  POPC      C210           14.8735346885        5.9564139405        7.6977739722  MEMB      3               0.0000000000
       334         3  POPC      H101           14.5825228844        6.2538426059        6.6795168352  MEMB      3               0.0000000000
       335         3  POPC      C211           15.8981673725        4.8372507992        7.7776639610  MEMB      3               0.0000000000
       336         3  POPC      H11R           16.1209421949        4.5105731193        8.8159198521  MEMB      3               0.0000000000
       337         3  POPC      H11S           16.8514438392        5.2523135887        7.3861187366  MEMB      3               0.0000000000
       338         3  POPC      C212           15.5678493633        3.5153915940        7.0241558313  MEMB      3               0.0000000000
       339         3  POPC      H12R           14.5361669893        3.1817818808        7.2663475529  MEMB      3               0.0000000000
       340         3  POPC      H12S           16.2366286096        2.6688578979        7.2895537845  MEMB      3               0.0000000000
       341         3  POPC      C213           15.5497664970        3.6453303208        5.5079435466  MEMB      3               0.0000000000
       342         3  POPC      H13R           16.5654404825        3.9667418576        5.1926313476  MEMB      3               0.0000000000
       343         3  POPC      H13S           14.8403463605        4.4263131909        5.1599353858  MEMB      3               0.0000000000
       344         3  POPC      C214           15.1584051839        2.3174363341        4.8515612459  MEMB      3               0.0000000000
       345         3  POPC      H14R           14.0488253518        2.3514135354        4.8962716225  MEMB      3               0.0000000000
       346         3  POPC      H14S           15.5141722744        1.4418089061        5.4355367563  MEMB      3               0.0000000000
       347         3  POPC      C215           15.6708204695        2.2471445627        3.4989986482  MEMB      3               0.0000000000
       348         3  POPC      H15R           16.7752198864        2.3523122221        3.5586890055  MEMB      3               0.0000000000
       349         3  POPC      H15S           15.3143180043        2.8393444776        2.6292135602  MEMB      3               0.0000000000
       350         3  POPC      C216           15.4583369568        0.7297495098        2.8482887058  MEMB      3               0.0000000000
       351         3  POPC      H16R           15.8217799944       -0.0242356342        3.5788611814  MEMB      3               0.0000000000
       352         3  POPC      H16S           16.1268584763        0.6380252308        1.9656856130  MEMB      3               0.0000000000
       353         3  POPC      C217           13.9955495572        0.5426915589        2.3973229768  MEMB      3               0.0000000000
       354         3  POPC      H17R           13.6935766303        1.1730559675        1.5337414186  MEMB      3               0.0000000000
       355         3  POPC      H17S           13.3904592229        0.7096946537        3.3140013708  MEMB      3               0.0000000000
       356         3  POPC      C218           13.7878476188       -0.9100161145        1.8644842396  MEMB      3               0.0000000000
       357         3  POPC      H18R           14.4750438220       -1.0600453158        1.0044999193  MEMB      3               0.0000000000
       358         3  POPC      H18S           12.7404517814       -1.0228641349        1.5115713474  MEMB      3               0.0000000000
       359         3  POPC      H18T           14.0292760686       -1.6376879770        2.6685532007  MEMB      3               0.0000000000
       360         3  POPC      C33            13.7824454433        0.7836852292       13.3419741359  MEMB      3               0.0000000000
       361         3  POPC      H3X            14.3999706245        1.4035369508       14.0266402865  MEMB      3               0.0000000000
       362         3  POPC      H3Y            12.8686317234        1.3882613728       13.1582544571  MEMB      3               0.0000000000
       363         3  POPC      C34            14.5962727478        0.8641176281       11.9987876679  MEMB      3               0.0000000000
       364         3  POPC      H4X            15.6245807557        0.4592237785       12.1126513800  MEMB      3               0.0000000000
       365         3  POPC      H4Y            14.9055014961        1.9140526800       11.8081704316  MEMB      3               0.0000000000
       366         3  POPC      C35            13.7828211722        0.3638604437       10.7912892410  MEMB      3               0.0000000000
       367         3  POPC      H5X            12.7039099243        0.6099369679       10.8898688258  MEMB      3               0.0000000000
       368         3  POPC      H5Y            13.8604361440       -0.7434424620       10.7446328721  MEMB      3               0.0000000000
       369         3  POPC      C36            14.2155204086        0.9887227280        9.4828616875  MEMB      3               0.0000000000
       370         3  POPC      H6X            15.2660123208        0.6717684366        9.3087131586  MEMB      3               0.0000000000
       371         3  POPC      H6Y            14.2464833884        2.0992614000        9.4747411728  MEMB      3               0.0000000000
       372         3  POPC      C37            13.3572682125        0.5070691933        8.3500556823  MEMB      3               0.0000000000
       373         3  POPC      H7X            13.2327395003       -0.5902604870        8.2288903095  MEMB      3               0.0000000000
       374         3  POPC      H7Y            13.7064758385        0.9344376822        7.3858302472  MEMB      3               0.0000000000
       375         3  POPC      C38            11.7777084056        0.8585127570        8.5477895426  MEMB      3               0.0000000000
       376         3  POPC      H8X            11.8602222491        1.8872251619        8.9592062128  MEMB      3               0.0000000000
       377         3  POPC      H8Y            11.3114669472        0.3306361617        9.4070251584  MEMB      3               0.0000000000
       378         3  POPC      C39            10.8260918116        0.8902349251        7.3618549930  MEMB      3               0.0000000000
       379         3  POPC      H9X            10.5453374010       -0.1473139718        7.0808035363  MEMB      3               0.0000000000
       380         3  POPC      H9Y            11.3475526810        1.4419244332        6.5506587935  MEMB      3               0.0000000000
       381         3  POPC      C310            9.5393344706        1.8116127208        7.4351886105  MEMB      3               0.0000000000
       382         3  POPC      H10X            8.8028796628        1.3382814416        8.1192302324  MEMB      3               0.0000000000
       383         3  POPC      H10Y            9.0131053255        1.8260556833        6.4568250268  MEMB      3               0.0000000000
       384         3  POPC      C311            9.6949802521        3.2767326698        7.7252486329  MEMB      3               0.0000000000
       385         3  POPC      H11X           10.0530748841        3.4065382863        8.7689151271  MEMB      3               0.0000000000
       386         3  POPC      H11Y            8.7107642773        3.7740092721        7.5897645314  MEMB      3               0.0000000000
       387         3  POPC      C312           10.6829623364        4.0903669957        6.8447797824  MEMB      3               0.0000000000
       388         3  POPC      H12X           11.5441040930        3.3902001665        6.8950008364  MEMB      3               0.0000000000
       389         3  POPC      H12Y           10.8851115211        5.0870718209        7.2920335189  MEMB      3               0.0000000000
       390         3  POPC      C313           10.1782299197        4.3936430464        5.4425191982  MEMB      3               0.0000000000
       391         3  POPC      H13X            9.4672952692        5.2468909650        5.4131854060  MEMB      3               0.0000000000
       392         3  POPC      H13Y            9.6550237853        3.5341740371        4.9714677005  MEMB      3               0.0000000000
       393         3  POPC      C314           11.3882790618        4.8807887559        4.5694041805  MEMB      3               0.0000000000
       394         3  POPC      H14X           12.1760721819        4.0974568555        4.5597167386  MEMB      3               0.0000000000
       395         3  POPC      H14Y           11.8268542927        5.8389411113        4.9214222981  MEMB      3               0.0000000000
       396         3  POPC      C315           10.8506584303        5.0580788751        3.1340796761  MEMB      3               0.0000000000
       397         3  POPC      H15X           10.0167929931        5.7867829434        3.2234102171  MEMB      3               0.0000000000
       398         3  POPC      H15Y           10.2475980592        4.1890325083        2.7943779628  MEMB      3               0.0000000000
       399         3  POPC      C316           11.8811958200        5.4019909937        2.0892824886  MEMB      3               0.0000000000
       400         3  POPC      H16X           11.4812726200        5.8489810406        1.1540901000  MEMB      3               0.0000000000
       401         3  POPC      H16Y           12.5158174176        4.5218124944        1.8508234966  MEMB      3               0.0000000000
       402         3  POPC      H16Z           12.4767086046        6.1825994321        2.6092210712  MEMB      3               0.0000000000
       403         4  POPC      N              -5.3943720728       12.6575396608       19.3273689738  MEMB      4               0.0000000000
       404         4  POPC      C12            -4.7235440671       13.7159439193       18.4223106808  MEMB      4               0.0000000000
       405         4  POPC      H12A           -5.2982356970       13.7039344366       17.5079884236  MEMB      4               0.0000000000
       406         4  POPC      H12B           -3.7202294959       13.3285172550       18.3240235929  MEMB      4               0.0000000000
       407         4  POPC      C13            -6.8407339001       13.0033495714       19.6020121319  MEMB      4               0.0000000000
       408         4  POPC      H13A           -7.4035480215       12.9666663225       18.6809829717  MEMB      4               0.0000000000
       409         4  POPC      H13B           -7.2977399063       12.3354058265       20.3171322448  MEMB      4               0.0000000000
       410         4  POPC      H13C           -6.8349493079       13.9661592513       20.0912606167  MEMB      4               0.0000000000
       411         4  POPC      C14            -5.3803122684       11.3349922464       18.6963085684  MEMB      4               0.0000000000
       412         4  POPC      H14A           -6.0028315393       10.7078949761       19.3172905248  MEMB      4               0.0000000000
       413         4  POPC      H14B           -5.8536581662       11.3425674351       17.7255942421  MEMB      4               0.0000000000
       414         4  POPC      H14C           -4.4287592835       10.8467066060       18.5462284215  MEMB      4               0.0000000000
       415         4  POPC      C15            -4.6083910736       12.5704694181       20.5910307586  MEMB      4               0.0000000000
       416         4  POPC      H15A           -3.7057970165       12.0647080124       20.2813061902  MEMB      4               0.0000000000
       417         4  POPC      H15B           -5.2021321280       11.9286276919       21.2249950885  MEMB      4               0.0000000000
       418         4  POPC      H15C           -4.4185470915       13.5337423718       21.0409911795  MEMB      4               0.0000000000
       419         4  POPC      C11            -4.4430635195       15.1752587534       19.0356699801  MEMB      4               0.0000000000
       420         4  POPC      H11A           -3.9895839278       15.6717130460       18.1512434023  MEMB      4               0.0000000000
       421         4  POPC      H11B           -3.7326319208       14.9920336186       19.8699579580  MEMB      4               0.0000000000
       422         4  POPC      P              -6.4005978968       16.8963387938       18.7063751919  MEMB      4               0.0000000000
       423         4  POPC      O13            -5.5339519362       18.0977175023       18.6715282367  MEMB      4               0.0000000000
       424         4  POPC      O14            -7.8073009242       16.9821707810       19.1619840234  MEMB      4               0.0000000000
       425         4  POPC      O12            -5.5576331094       15.8805764112       19.5756827068  MEMB      4               0.0000000000
       426         4  POPC      O11            -6.3758437273       16.2971634415       17.2097287500  MEMB      4               0.0000000000
       427         4  POPC      C1             -7.6161810884       15.9484715684       16.6484220775  MEMB      4               0.0000000000
       428         4  POPC      HA             -8.3310544468       16.7760800132       16.8442314725  MEMB      4               0.0000000000
       429         4  POPC      HB             -8.0401468420       15.1065775898       17.2364601257  MEMB      4               0.0000000000
       430         4  POPC      C2             -7.5119030203       15.6476731301       15.0959516970  MEMB      4               0.0000000000
       431         4  POPC      HS             -8.4922193533       15.2363960771       14.7732255024  MEMB      4               0.0000000000
       432         4  POPC      O21            -6.4850553219       14.6855992207       14.9051345367  MEMB      4               0.0000000000
       433         4  POPC      C21            -6.6188092223       13.4691350089       15.5241302494  MEMB      4               0.0000000000
       434         4  POPC      O22            -7.5858265351       13.0377155705       16.1045042894  MEMB      4               0.0000000000
       435         4  POPC      C22            -5.3479217936       12.7148416745       15.1862854359  MEMB      4               0.0000000000
       436         4  POPC      H2R            -5.2182459782       11.8472888318       15.8680899395  MEMB      4               0.0000000000
       437         4  POPC      H2S            -4.4842342209       13.3503958543       15.4768635200  MEMB      4               0.0000000000
       438         4  POPC      C3             -7.1014094486       16.9463823699       14.3649111922  MEMB      4               0.0000000000
       439         4  POPC      HX             -6.4904621675       17.6058163376       15.0177597148  MEMB      4               0.0000000000
       440         4  POPC      HY             -7.9906637745       17.5639267648       14.1155393783  MEMB      4               0.0000000000
       441         4  POPC      O31            -6.4459091176       16.5464269438       13.1312820829  MEMB      4               0.0000000000
       442         4  POPC      C31            -6.9542950925       17.0575790503       12.0422889621  MEMB      4               0.0000000000
       443         4  POPC      O32            -8.0707002939       17.5661731436       11.8272464847  MEMB      4               0.0000000000
       444         4  POPC      C32            -5.9137240506       16.6986911916       10.9342585960  MEMB      4               0.0000000000
       445         4  POPC      H2X            -5.8376070561       15.5904589717       10.9529309855  MEMB      4               0.0000000000
       446         4  POPC      H2Y            -4.9251892783       17.1165956225       11.2214445413  MEMB      4               0.0000000000
       447         4  POPC      C23            -5.3377007061       12.1815479556       13.7556726999  MEMB      4               0.0000000000
       448         4  POPC      H3R            -4.9071419815       12.9864711093       13.1223965269  MEMB      4               0.0000000000
       449         4  POPC      H3S            -6.3199783212       12.0443941634       13.2550327994  MEMB      4               0.0000000000
       450         4  POPC      C24            -4.5637734063       10.8119465332       13.6457115656  MEMB      4               0.0000000000
       451         4  POPC      H4R            -5.3858683724       10.1362745341       13.9650049447  MEMB      4               0.0000000000
       452         4  POPC      H4S            -3.7890082641       10.7064373476       14.4349693458  MEMB      4               0.0000000000
       453         4  POPC      C25            -3.9744110526       10.5099579864       12.3047693560  MEMB      4               0.0000000000
       454         4  POPC      H5R            -3.4875020572        9.5286654320       12.4899853995  MEMB      4               0.0000000000
       455         4  POPC      H5S            -3.1893945477       11.2580307187       12.0629900583  MEMB      4               0.0000000000
       456         4  POPC      C26            -4.9889921396       10.4481302485       11.1596295653  MEMB      4               0.0000000000
       457         4  POPC      H6R            -5.8518981489        9.8229668018       11.4740895556  MEMB      4               0.0000000000
       458         4  POPC      H6S            -4.3614882426        9.8682444491       10.4494947251  MEMB      4               0.0000000000
       459         4  POPC      C27            -5.3655600694       11.7974329722       10.4611550127  MEMB      4               0.0000000000
       460         4  POPC      H7R            -4.5089562320       12.4328799728       10.1500955016  MEMB      4               0.0000000000
       461         4  POPC      H7S            -5.9436920853       12.4042073387       11.1904763092  MEMB      4               0.0000000000
       462         4  POPC      C28            -6.1754236370       11.6041212808        9.1159564925  MEMB      4               0.0000000000
       463         4  POPC      H8R            -5.5958102659       10.8742453555        8.5112656018  MEMB      4               0.0000000000
       464         4  POPC      H8S            -6.1485316672       12.5755392325        8.5774912622  MEMB      4               0.0000000000
       465         4  POPC      C29            -7.5648501275       11.0116576646        9.2728507758  MEMB      4               0.0000000000
       466         4  POPC      H91            -7.5450011276       10.0507451902        9.8078771795  MEMB      4               0.0000000000
       467         4  POPC      C210           -8.7513657568       11.5655143017        8.8334632969  MEMB      4               0.0000000000
       468         4  POPC      H101           -9.6718652962       11.0362050472        9.1207141982  MEMB      4               0.0000000000
       469         4  POPC      C211           -8.9029524525       12.8496916020        8.0855530665  MEMB      4               0.0000000000
       470         4  POPC      H11R           -8.1086787263       13.5780535339        8.3556256630  MEMB      4               0.0000000000
       471         4  POPC      H11S           -9.7875378578       13.4304516923        8.4240006582  MEMB      4               0.0000000000
       472         4  POPC      C212           -8.9408509739       12.6566272034        6.5475412356  MEMB      4               0.0000000000
       473         4  POPC      H12R           -9.8475283201       12.0166227113        6.4960474738  MEMB      4               0.0000000000
       474         4  POPC      H12S           -8.1456979746       11.9797299754        6.1682485090  MEMB      4               0.0000000000
       475         4  POPC      C213           -9.0158213462       13.8295559561        5.6138284560  MEMB      4               0.0000000000
       476         4  POPC      H13R           -9.6849587003       14.5543245451        6.1249903155  MEMB      4               0.0000000000
       477         4  POPC      H13S           -9.5552029410       13.5318459552        4.6892975660  MEMB      4               0.0000000000
       478         4  POPC      C214           -7.6843509927       14.5525027325        5.3369066032  MEMB      4               0.0000000000
       479         4  POPC      H14R           -7.2453810686       14.8780155722        6.3042056997  MEMB      4               0.0000000000
       480         4  POPC      H14S           -7.8603564248       15.4670562984        4.7311550953  MEMB      4               0.0000000000
       481         4  POPC      C215           -6.5983499419       13.6759222621        4.6938331372  MEMB      4               0.0000000000
       482         4  POPC      H15R           -6.3656706031       12.7904463603        5.3232090447  MEMB      4               0.0000000000
       483         4  POPC      H15S           -5.5927247525       14.1385088863        4.5986876457  MEMB      4               0.0000000000
       484         4  POPC      C216           -7.0249074450       13.1744469962        3.3290142890  MEMB      4               0.0000000000
       485         4  POPC      H16R           -7.4886619255       14.0029382418        2.7520779443  MEMB      4               0.0000000000
       486         4  POPC      H16S           -7.8941450505       12.4844538918        3.3805547067  MEMB      4               0.0000000000
       487         4  POPC      C217           -5.9271034370       12.5617896039        2.4878396465  MEMB      4               0.0000000000
       488         4  POPC      H17R           -4.9712342628       13.0933691911        2.6829253011  MEMB      4               0.0000000000
       489         4  POPC      H17S           -6.1149962152       12.7486282824        1.4089008672  MEMB      4               0.0000000000
       490         4  POPC      C218           -5.6330128102       11.0352924589        2.7430707196  MEMB      4               0.0000000000
       491         4  POPC      H18R           -6.5796228987       10.4694568197        2.8775335842  MEMB      4               0.0000000000
       492         4  POPC      H18S           -5.0624778528       10.8450215834        3.6772060720  MEMB      4               0.0000000000
       493         4  POPC      H18T           -5.1099325199       10.6082885650        1.8608152540  MEMB      4               0.0000000000
       494         4  POPC      C33            -6.3060258674       17.1408370366        9.4992357857  MEMB      4               0.0000000000
       495         4  POPC      H3X            -6.7010099927       18.1792007563        9.5097188643  MEMB      4               0.0000000000
       496         4  POPC      H3Y            -7.0253049408       16.4157936713        9.0618903909  MEMB      4               0.0000000000
       497         4  POPC      C34            -5.1505277698       17.0411840770        8.4658334698  MEMB      4               0.0000000000
       498         4  POPC      H4X            -5.5901524165       17.1690349928        7.4535554053  MEMB      4               0.0000000000
       499         4  POPC      H4Y            -4.8832672146       15.9635181758        8.4267271381  MEMB      4               0.0000000000
       500         4  POPC      C35            -4.0099027177       18.0666086488        8.4987168673  MEMB      4               0.0000000000
       501         4  POPC      H5X            -3.7547875436       18.5372274994        9.4722442670  MEMB      4               0.0000000000
       502         4  POPC      H5Y            -4.3589885587       18.8780783747        7.8249385327  MEMB      4               0.0000000000
       503         4  POPC      C36            -2.6633587082       17.5783871971        7.9939333042  MEMB      4               0.0000000000
       504         4  POPC      H6X            -2.1372787063       17.0291939085        8.8038391840  MEMB      4               0.0000000000
       505         4  POPC      H6Y            -1.9560812398       18.4041162480        7.7653476119  MEMB      4               0.0000000000
       506         4  POPC      C37            -2.5558012046       16.8231431822        6.6001694373  MEMB      4               0.0000000000
       507         4  POPC      H7X            -3.0754655678       15.8524800022        6.7487737698  MEMB      4               0.0000000000
       508         4  POPC      H7Y            -1.4949043930       16.6218903853        6.3387967957  MEMB      4               0.0000000000
       509         4  POPC      C38            -3.1401171039       17.6343071600        5.4293211304  MEMB      4               0.0000000000
       510         4  POPC      H8X            -2.6462892838       18.6115988016        5.2412890928  MEMB      4               0.0000000000
       511         4  POPC      H8Y            -4.1823258749       17.8676292365        5.7353968842  MEMB      4               0.0000000000
       512         4  POPC      C39            -3.0364776000       16.8322327208        4.1373244669  MEMB      4               0.0000000000
       513         4  POPC      H9X            -3.7187777022       15.9596971492        4.2237469517  MEMB      4               0.0000000000
       514         4  POPC      H9Y            -2.0171268687       16.4129631399        3.9978335937  MEMB      4               0.0000000000
       515         4  POPC      C310           -3.4628281069       17.7211687591        2.9613754705  MEMB      4               0.0000000000
       516         4  POPC      H10X           -2.5017463986       18.2179419193        2.7086706480  MEMB      4               0.0000000000
       517         4  POPC      H10Y           -4.0574831826       18.5412250378        3.4176806710  MEMB      4               0.0000000000
       518         4  POPC      C311           -4.1680041837       17.0035717895        1.8595699822  MEMB      4               0.0000000000
       519         4  POPC      H11X           -5.0181537693       16.4015613982        2.2457687684  MEMB      4               0.0000000000
       520         4  POPC      H11Y           -3.4073835910       16.4325748274        1.2853391644  MEMB      4               0.0000000000
       521         4  POPC      C312           -4.7269002672       18.0109261669        0.9180708123  MEMB      4               0.0000000000
       522         4  POPC      H12X           -4.0004776605       18.2781806228        0.1210720585  MEMB      4               0.0000000000
       523         4  POPC      H12Y           -4.9472019454       18.9515839950        1.4666606021  MEMB      4               0.0000000000
       524         4  POPC      C313           -6.0010842337       17.5959757075        0.1658984650  MEMB      4               0.0000000000
       525         4  POPC      H13X           -6.2604756597       18.3817099029       -0.5754914130  MEMB      4               0.0000000000
       526         4  POPC      H13Y           -6.9391587699       17.5390350867        0.7584299271  MEMB      4               0.0000000000
       527         4  POPC      C314           -5.8353248003       16.2591243463       -0.5467414999  MEMB      4               0.0000000000
       528         4  POPC      H14X           -5.8363173149       15.4284858767        0.1910663783  MEMB      4               0.0000000000
       529         4  POPC      H14Y           -4.8953122297       16.2147263970       -1.1372726560  MEMB      4               0.0000000000
       530         4  POPC      C315           -6.9609701643       15.8295141322       -1.5561620319  MEMB      4               0.0000000000
       531         4  POPC      H15X           -6.4922074927       14.8702790063       -1.8634893453  MEMB      4               0.0000000000
       532         4  POPC      H15Y           -6.8826898675       16.6187050328       -2.3342173553  MEMB      4               0.0000000000
       533         4  POPC      C316           -8.3508630035       15.7359570831       -1.0071254304  MEMB      4               0.0000000000
       534         4  POPC      H16X           -8.3684871361       15.2205335574       -0.0230786155  MEMB      4               0.0000000000
       535         4  POPC      H16Y           -8.9133103270       15.0914030439       -1.7160151471  MEMB      4               0.0000000000
       536         4  POPC      H16Z           -8.9961642139       16.6358239333       -1.0973867202  MEMB      4               0.0000000000
       537         5  POPC      N              -8.6878397721      -13.5435999168       19.6557677203  MEMB      5               0.0000000000
       538         5  POPC      C12            -9.0456989134      -14.9275858923       20.0566028039  MEMB      5               0.0000000000
       539         5  POPC      H12A           -9.6592441120      -14.8159890507       20.9383671008  MEMB      5               0.0000000000
       540         5  POPC      H12B           -8.1853282136      -15.5187404032       20.3335478211  MEMB      5               0.0000000000
       541         5  POPC      C13            -7.6464295129      -13.5145641542       18.6027507421  MEMB      5               0.0000000000
       542         5  POPC      H13A           -8.0775850988      -13.6537875523       17.6223826042  MEMB      5               0.0000000000
       543         5  POPC      H13B           -7.1985240471      -12.5320729552       18.5805742743  MEMB      5               0.0000000000
       544         5  POPC      H13C           -6.8132220555      -14.1504549341       18.8631507860  MEMB      5               0.0000000000
       545         5  POPC      C14            -9.8410404803      -12.6931235286       19.1881601729  MEMB      5               0.0000000000
       546         5  POPC      H14A           -9.5218290700      -11.6666702900       19.0837680566  MEMB      5               0.0000000000
       547         5  POPC      H14B          -10.2766227276      -13.0729809852       18.2758135177  MEMB      5               0.0000000000
       548         5  POPC      H14C          -10.6459891234      -12.6636800024       19.9075980827  MEMB      5               0.0000000000
       549         5  POPC      C15            -8.0600422280      -12.9592064570       20.9092012351  MEMB      5               0.0000000000
       550         5  POPC      H15A           -7.3091561970      -13.7093023123       21.1090173752  MEMB      5               0.0000000000
       551         5  POPC      H15B           -8.9251736550      -12.8912036294       21.5521032811  MEMB      5               0.0000000000
       552         5  POPC      H15C           -7.5156824593      -12.0312943035       20.8140629466  MEMB      5               0.0000000000
       553         5  POPC      C11            -9.8490712406      -15.7184700498       19.0349849674  MEMB      5               0.0000000000
       554         5  POPC      H11A          -10.6918455934      -15.1981970300       18.5316277025  MEMB      5               0.0000000000
       555         5  POPC      H11B          -10.4719114097      -16.4836070537       19.5458241192  MEMB      5               0.0000000000
       556         5  POPC      P              -8.2580536492      -17.5853260064       18.3380798913  MEMB      5               0.0000000000
       557         5  POPC      O13            -8.5295178049      -17.8813106969       19.7840810923  MEMB      5               0.0000000000
       558         5  POPC      O14            -6.8481835272      -17.5123983547       17.8786655128  MEMB      5               0.0000000000
       559         5  POPC      O12            -9.0359952987      -16.2543743535       18.0324084566  MEMB      5               0.0000000000
       560         5  POPC      O11            -9.0198407942      -18.6230407792       17.5192974033  MEMB      5               0.0000000000
       561         5  POPC      C1            -10.1495406747      -19.3772077543       17.9919379172  MEMB      5               0.0000000000
       562         5  POPC      HA            -10.7197709822      -18.9174515159       18.8272717338  MEMB      5               0.0000000000
       563         5  POPC      HB             -9.7632834359      -20.3830569328       18.2628515911  MEMB      5               0.0000000000
       564         5  POPC      C2            -11.0977461587      -19.4935557132       16.8430075098  MEMB      5               0.0000000000
       565         5  POPC      HS            -11.8430190713      -20.3096025118       16.9568341499  MEMB      5               0.0000000000
       566         5  POPC      O21           -10.2696307046      -19.6379006267       15.6301073373  MEMB      5               0.0000000000
       567         5  POPC      C21           -10.8201771693      -20.0021329721       14.4598531376  MEMB      5               0.0000000000
       568         5  POPC      O22           -11.9771722817      -20.3499396739       14.3778046775  MEMB      5               0.0000000000
       569         5  POPC      C22            -9.9429580696      -19.5814730278       13.2911526962  MEMB      5               0.0000000000
       570         5  POPC      H2R            -9.3586300312      -20.4688159247       12.9663383222  MEMB      5               0.0000000000
       571         5  POPC      H2S            -9.2657089353      -18.7610041862       13.6112865024  MEMB      5               0.0000000000
       572         5  POPC      C3            -11.9090100594      -18.2509729073       16.5881188888  MEMB      5               0.0000000000
       573         5  POPC      HX            -12.5567646229      -18.0506389861       17.4682332473  MEMB      5               0.0000000000
       574         5  POPC      HY            -12.6408317821      -18.4108981320       15.7676420317  MEMB      5               0.0000000000
       575         5  POPC      O31           -10.9831993300      -17.2088859806       16.3080889459  MEMB      5               0.0000000000
       576         5  POPC      C31           -11.1088742898      -16.6197067960       15.0945626783  MEMB      5               0.0000000000
       577         5  POPC      O32           -12.0225815244      -16.7430475647       14.3322573764  MEMB      5               0.0000000000
       578         5  POPC      C32            -9.9179333454      -15.6361695109       14.9017061525  MEMB      5               0.0000000000
       579         5  POPC      H2X            -9.7434497332      -15.6254048268       13.8045458306  MEMB      5               0.0000000000
       580         5  POPC      H2Y            -8.9497194436      -15.9881930015       15.3175937401  MEMB      5               0.0000000000
       581         5  POPC      C23           -10.9193199956      -19.1701595524       12.1036670575  MEMB      5               0.0000000000
       582         5  POPC      H3R           -11.5810115310      -18.2998409071       12.3012297623  MEMB      5               0.0000000000
       583         5  POPC      H3S           -11.4358718299      -20.1288915045       11.8838305455  MEMB      5               0.0000000000
       584         5  POPC      C24           -10.1136395551      -18.9746490231       10.7721173565  MEMB      5               0.0000000000
       585         5  POPC      H4R            -9.2233006465      -19.6172249432       10.9415683100  MEMB      5               0.0000000000
       586         5  POPC      H4S            -9.8960235984      -17.8869832753       10.7092888881  MEMB      5               0.0000000000
       587         5  POPC      C25           -10.8869934617      -19.5094819834        9.5646912403  MEMB      5               0.0000000000
       588         5  POPC      H5R           -11.2070248602      -20.5564059542        9.7540347939  MEMB      5               0.0000000000
       589         5  POPC      H5S           -10.1440629148      -19.5298618895        8.7388821270  MEMB      5               0.0000000000
       590         5  POPC      C26           -12.1189579564      -18.6132069043        9.2401389595  MEMB      5               0.0000000000
       591         5  POPC      H6R           -11.9223327530      -17.5201656103        9.2098080504  MEMB      5               0.0000000000
       592         5  POPC      H6S           -12.8206946651      -18.6700983333       10.0995864834  MEMB      5               0.0000000000
       593         5  POPC      C27           -12.7945197633      -18.9015468874        7.9976666622  MEMB      5               0.0000000000
       594         5  POPC      H7R           -13.0828052347      -19.9736847266        8.0392952289  MEMB      5               0.0000000000
       595         5  POPC      H7S           -12.1096755400      -18.7828041936        7.1309430780  MEMB      5               0.0000000000
       596         5  POPC      C28           -14.1321786487      -18.1196534182        7.7580301842  MEMB      5               0.0000000000
       597         5  POPC      H8R           -14.7403515530      -18.2791323293        8.6740062384  MEMB      5               0.0000000000
       598         5  POPC      H8S           -14.6220525585      -18.5223777632        6.8458036872  MEMB      5               0.0000000000
       599         5  POPC      C29           -14.1344482991      -16.6157060154        7.6495689789  MEMB      5               0.0000000000
       600         5  POPC      H91           -13.6695355258      -16.1042151645        8.5052753679  MEMB      5               0.0000000000
       601         5  POPC      C210          -14.6083245864      -15.9216485170        6.5943426635  MEMB      5               0.0000000000
       602         5  POPC      H101          -14.5047977466      -14.8279911602        6.6508705739  MEMB      5               0.0000000000
       603         5  POPC      C211          -15.2983910168      -16.3732152626        5.3102860544  MEMB      5               0.0000000000
       604         5  POPC      H11R          -16.1610083715      -15.6833404558        5.1907673583  MEMB      5               0.0000000000
       605         5  POPC      H11S          -15.7688073892      -17.3743562887        5.4139502057  MEMB      5               0.0000000000
       606         5  POPC      C212          -14.5363961601      -16.4287250681        4.0010437713  MEMB      5               0.0000000000
       607         5  POPC      H12R          -14.0099609291      -15.4509054308        3.9685473411  MEMB      5               0.0000000000
       608         5  POPC      H12S          -15.3020732640      -16.4939654278        3.1986702021  MEMB      5               0.0000000000
       609         5  POPC      C213          -13.6376808786      -17.6191062039        3.8085093779  MEMB      5               0.0000000000
       610         5  POPC      H13R          -14.1891243203      -18.5610778962        4.0156821236  MEMB      5               0.0000000000
       611         5  POPC      H13S          -12.9407845695      -17.5504011299        4.6710269447  MEMB      5               0.0000000000
       612         5  POPC      C214          -12.8506599780      -17.7621778349        2.4728097050  MEMB      5               0.0000000000
       613         5  POPC      H14R          -12.1178123591      -18.5944003315        2.5410809152  MEMB      5               0.0000000000
       614         5  POPC      H14S          -12.2281301774      -16.8426179862        2.4383621734  MEMB      5               0.0000000000
       615         5  POPC      C215          -13.6125498004      -18.0227340608        1.2139171634  MEMB      5               0.0000000000
       616         5  POPC      H15R          -12.9944683857      -18.0217779664        0.2907188904  MEMB      5               0.0000000000
       617         5  POPC      H15S          -14.3143071341      -17.1663601979        1.1218235168  MEMB      5               0.0000000000
       618         5  POPC      C216          -14.3533408657      -19.3320563131        1.3565535267  MEMB      5               0.0000000000
       619         5  POPC      H16R          -15.1681513013      -19.2525268219        2.1076074204  MEMB      5               0.0000000000
       620         5  POPC      H16S          -13.6456119130      -20.1120512744        1.7101771523  MEMB      5               0.0000000000
       621         5  POPC      C217          -14.9511592973      -19.9550045584        0.0676903865  MEMB      5               0.0000000000
       622         5  POPC      H17R          -15.3489112315      -19.1815765662       -0.6236293695  MEMB      5               0.0000000000
       623         5  POPC      H17S          -15.7665793019      -20.5714392066        0.5029142002  MEMB      5               0.0000000000
       624         5  POPC      C218          -14.0363010432      -20.8598349072       -0.7084271000  MEMB      5               0.0000000000
       625         5  POPC      H18R          -13.2815464535      -21.2886490717       -0.0150398197  MEMB      5               0.0000000000
       626         5  POPC      H18S          -13.4164955271      -20.2252484051       -1.3773527770  MEMB      5               0.0000000000
       627         5  POPC      H18T          -14.5427137650      -21.7407167391       -1.1577751710  MEMB      5               0.0000000000
       628         5  POPC      C33           -10.2195858334      -14.2249858952       15.3498334161  MEMB      5               0.0000000000
       629         5  POPC      H3X           -10.1820897159      -14.2251734734       16.4602003605  MEMB      5               0.0000000000
       630         5  POPC      H3Y           -11.2344517060      -14.0186597384       14.9475924311  MEMB      5               0.0000000000
       631         5  POPC      C34            -9.2079017577      -13.1322936853       14.9375882873  MEMB      5               0.0000000000
       632         5  POPC      H4X            -8.2147841982      -13.2602223009       15.4189121089  MEMB      5               0.0000000000
       633         5  POPC      H4Y            -9.6892632194      -12.1821454361       15.2535480271  MEMB      5               0.0000000000
       634         5  POPC      C35            -8.8611118030      -12.9493607771       13.4035041234  MEMB      5               0.0000000000
       635         5  POPC      H5X            -8.0998445963      -13.7273241282       13.1808697628  MEMB      5               0.0000000000
       636         5  POPC      H5Y            -8.2585579821      -12.0180895684       13.3403833351  MEMB      5               0.0000000000
       637         5  POPC      C36            -9.9999296449      -12.8874011484       12.4240008875  MEMB      5               0.0000000000
       638         5  POPC      H6X           -10.5097428843      -11.9542522135       12.7459393221  MEMB      5               0.0000000000
       639         5  POPC      H6Y           -10.6900185769      -13.7523145522       12.5241163387  MEMB      5               0.0000000000
       640         5  POPC      C37            -9.6068221717      -12.8236434713       10.9335435541  MEMB      5               0.0000000000
       641         5  POPC      H7X            -8.7951965895      -12.1128424320       10.6683129462  MEMB      5               0.0000000000
       642         5  POPC      H7Y           -10.4433125571      -12.4136442962       10.3281468367  MEMB      5               0.0000000000
       643         5  POPC      C38            -9.1612601153      -14.1561861328       10.3141043928  MEMB      5               0.0000000000
       644         5  POPC      H8X            -9.6641530002      -15.0671330042       10.7034573241  MEMB      5               0.0000000000
       645         5  POPC      H8Y            -8.0952045594      -14.2704869175       10.6052779357  MEMB      5               0.0000000000
       646         5  POPC      C39            -9.0201398804      -14.3546757076        8.8260047166  MEMB      5               0.0000000000
       647         5  POPC      H9X            -8.2522147355      -13.6189691650        8.5045266560  MEMB      5               0.0000000000
       648         5  POPC      H9Y            -9.9938598240      -14.1110898798        8.3497110496  MEMB      5               0.0000000000
       649         5  POPC      C310           -8.6586173724      -15.7963745297        8.3581525902  MEMB      5               0.0000000000
       650         5  POPC      H10X           -9.5465724098      -16.4432620748        8.5236625906  MEMB      5               0.0000000000
       651         5  POPC      H10Y           -7.8882866491      -16.1142536975        9.0929069995  MEMB      5               0.0000000000
       652         5  POPC      C311           -8.0817554481      -15.9751721710        6.9327922833  MEMB      5               0.0000000000
       653         5  POPC      H11X           -7.9172882812      -17.0151931961        6.5783518690  MEMB      5               0.0000000000
       654         5  POPC      H11Y           -7.0575371992      -15.5495538733        6.9971929573  MEMB      5               0.0000000000
       655         5  POPC      C312           -9.0064740573      -15.4371099414        5.7920234098  MEMB      5               0.0000000000
       656         5  POPC      H12X           -9.5566197681      -14.6194909621        6.3050136548  MEMB      5               0.0000000000
       657         5  POPC      H12Y           -9.7232012632      -16.2218039446        5.4681728422  MEMB      5               0.0000000000
       658         5  POPC      C313           -8.3390194194      -14.8497616294        4.5231191567  MEMB      5               0.0000000000
       659         5  POPC      H13X           -7.4498307141      -14.2479990478        4.8086821358  MEMB      5               0.0000000000
       660         5  POPC      H13Y           -9.0640713546      -14.2667881727        3.9158607822  MEMB      5               0.0000000000
       661         5  POPC      C314           -7.8004554742      -15.8788618782        3.4336280870  MEMB      5               0.0000000000
       662         5  POPC      H14X           -8.6342009124      -16.3083724901        2.8380528472  MEMB      5               0.0000000000
       663         5  POPC      H14Y           -7.3082605202      -16.7645432825        3.8892962703  MEMB      5               0.0000000000
       664         5  POPC      C315           -6.8618829063      -15.2846498977        2.4379799030  MEMB      5               0.0000000000
       665         5  POPC      H15X           -6.2613225230      -14.5189215592        2.9739905904  MEMB      5               0.0000000000
       666         5  POPC      H15Y           -7.5539094816      -14.6812636001        1.8124039478  MEMB      5               0.0000000000
       667         5  POPC      C316           -6.0067486283      -16.3271298685        1.6857790267  MEMB      5               0.0000000000
       668         5  POPC      H16X           -5.6522828542      -15.7570674136        0.8005094434  MEMB      5               0.0000000000
       669         5  POPC      H16Y           -6.5775398357      -17.2175531188        1.3456851479  MEMB      5               0.0000000000
       670         5  POPC      H16Z           -5.1164393693      -16.5034738752        2.3265396989  MEMB      5               0.0000000000
       671         6  POPC      N              -1.7905390404      -22.3845488298       20.8615377194  MEMB      6               0.0000000000
       672         6  POPC      C12            -1.5202415780      -21.5849806317       19.6151041682  MEMB      6               0.0000000000
       673         6  POPC      H12A           -1.2582528871      -22.3141090600       18.8626855286  MEMB      6               0.0000000000
       674         6  POPC      H12B           -0.6834331032      -20.9864022229       19.9435175934  MEMB      6               0.0000000000
       675         6  POPC      C13            -2.8597801072      -23.4249481050       20.6720655909  MEMB      6               0.0000000000
       676         6  POPC      H13A           -3.8196568371      -22.9362616462       20.5931852519  MEMB      6               0.0000000000
       677         6  POPC      H13B           -2.6046092393      -24.0267353634       19.8123331760  MEMB      6               0.0000000000
       678         6  POPC      H13C           -2.9977437076      -24.1064326062       21.4984706071  MEMB      6               0.0000000000
       679         6  POPC      C14            -0.4797148406      -23.0722754272       21.1823782971  MEMB      6               0.0000000000
       680         6  POPC      H14A           -0.4343386636      -23.9463041752       20.5495950051  MEMB      6               0.0000000000
       681         6  POPC      H14B            0.3246622728      -22.3631438377       21.0538881156  MEMB      6               0.0000000000
       682         6  POPC      H14C           -0.5231465575      -23.2731102112       22.2426513632  MEMB      6               0.0000000000
       683         6  POPC      C15            -2.0589192340      -21.3426982382       21.9279866233  MEMB      6               0.0000000000
       684         6  POPC      H15A           -2.8679013734      -20.7133985705       21.5875018012  MEMB      6               0.0000000000
       685         6  POPC      H15B           -1.2021947384      -20.7373080744       22.1847467823  MEMB      6               0.0000000000
       686         6  POPC      H15C           -2.4699428156      -21.8291124695       22.8002600676  MEMB      6               0.0000000000
       687         6  POPC      C11            -2.5344125879      -20.6211850649       18.9188701792  MEMB      6               0.0000000000
       688         6  POPC      H11A           -2.0578529020      -20.0459271600       18.0965015467  MEMB      6               0.0000000000
       689         6  POPC      H11B           -2.7715033528      -19.9641456289       19.7828193580  MEMB      6               0.0000000000
       690         6  POPC      P              -4.3341132671      -21.3294379279       17.1217899559  MEMB      6               0.0000000000
       691         6  POPC      O13            -4.0648332276      -19.9848656155       16.5987237805  MEMB      6               0.0000000000
       692         6  POPC      O14            -5.7705689505      -21.6920136515       17.3509608228  MEMB      6               0.0000000000
       693         6  POPC      O12            -3.5862484089      -21.5114178263       18.5002359034  MEMB      6               0.0000000000
       694         6  POPC      O11            -3.6911182372      -22.4261497843       16.2503469574  MEMB      6               0.0000000000
       695         6  POPC      C1             -2.3230330670      -22.7734481075       16.2848677856  MEMB      6               0.0000000000
       696         6  POPC      HA             -2.2800288547      -23.8831746829       16.3161508488  MEMB      6               0.0000000000
       697         6  POPC      HB             -1.8035440954      -22.4010959844       17.1936065717  MEMB      6               0.0000000000
       698         6  POPC      C2             -1.6649458474      -22.2383051827       14.9708757223  MEMB      6               0.0000000000
       699         6  POPC      HS             -1.6215857917      -21.1316723698       15.0592209547  MEMB      6               0.0000000000
       700         6  POPC      O21            -2.3537834917      -22.6159077128       13.7853974570  MEMB      6               0.0000000000
       701         6  POPC      C21            -2.9779172868      -21.6307656441       13.1297908780  MEMB      6               0.0000000000
       702         6  POPC      O22            -2.9948305332      -20.4490464335       13.4921120959  MEMB      6               0.0000000000
       703         6  POPC      C22            -3.5775903309      -22.3024377119       11.9238211036  MEMB      6               0.0000000000
       704         6  POPC      H2R            -4.2614644216      -23.0975772111       12.2904138197  MEMB      6               0.0000000000
       705         6  POPC      H2S            -2.8127399391      -22.8772918446       11.3591372270  MEMB      6               0.0000000000
       706         6  POPC      C3             -0.2394895720      -22.7731937095       14.8366506566  MEMB      6               0.0000000000
       707         6  POPC      HX             -0.2411983946      -23.8805306411       14.9267776309  MEMB      6               0.0000000000
       708         6  POPC      HY              0.4667739137      -22.4656275608       15.6372228578  MEMB      6               0.0000000000
       709         6  POPC      O31             0.2889810674      -22.4797498997       13.4514504937  MEMB      6               0.0000000000
       710         6  POPC      C31             0.8649414548      -21.2907499817       13.2527679384  MEMB      6               0.0000000000
       711         6  POPC      O32             0.9912109043      -20.4257515374       14.1036377765  MEMB      6               0.0000000000
       712         6  POPC      C32             1.2553895989      -21.1408891415       11.7742108683  MEMB      6               0.0000000000
       713         6  POPC      H2X             1.5998727698      -22.0952416068       11.3215920648  MEMB      6               0.0000000000
       714         6  POPC      H2Y             2.0912592217      -20.4326845637       11.5895776584  MEMB      6               0.0000000000
       715         6  POPC      C23            -4.4715155017      -21.3862263112       11.1406305944  MEMB      6               0.0000000000
       716         6  POPC      H3R            -4.9116593683      -20.5650907846       11.7458833606  MEMB      6               0.0000000000
       717         6  POPC      H3S            -5.3245372607      -22.0631768408       10.9206011101  MEMB      6               0.0000000000
       718         6  POPC      C24            -3.9121489163      -20.7697706353        9.8120760902  MEMB      6               0.0000000000
       719         6  POPC      H4R            -3.4078287552      -21.5821766709        9.2464098400  MEMB      6               0.0000000000
       720         6  POPC      H4S            -3.0988499964      -20.0564575708       10.0651588583  MEMB      6               0.0000000000
       721         6  POPC      C25            -4.9256529783      -20.0148128447        8.9745279177  MEMB      6               0.0000000000
       722         6  POPC      H5R            -5.5505956883      -19.2999619255        9.5513769083  MEMB      6               0.0000000000
       723         6  POPC      H5S            -5.7218464735      -20.7443938350        8.7135512431  MEMB      6               0.0000000000
       724         6  POPC      C26            -4.4407887244      -19.4488523605        7.6305585155  MEMB      6               0.0000000000
       725         6  POPC      H6R            -3.8215871467      -18.6032025041        7.9990512706  MEMB      6               0.0000000000
       726         6  POPC      H6S            -5.3697123076      -19.1802896130        7.0834793413  MEMB      6               0.0000000000
       727         6  POPC      C27            -3.5617173482      -20.4205564700        6.8618269724  MEMB      6               0.0000000000
       728         6  POPC      H7R            -4.1771168856      -21.3401123196        6.7617195216  MEMB      6               0.0000000000
       729         6  POPC      H7S            -2.6276720047      -20.7065311842        7.3910706227  MEMB      6               0.0000000000
       730         6  POPC      C28            -3.3504120115      -19.9069281169        5.4420215280  MEMB      6               0.0000000000
       731         6  POPC      H8R            -4.3330656086      -19.6247752047        5.0071623918  MEMB      6               0.0000000000
       732         6  POPC      H8S            -2.9701159971      -20.7560831134        4.8348705866  MEMB      6               0.0000000000
       733         6  POPC      C29            -2.4752192525      -18.6613754806        5.2618688032  MEMB      6               0.0000000000
       734         6  POPC      H91            -2.9619865592      -17.6749618998        5.2686499184  MEMB      6               0.0000000000
       735         6  POPC      C210           -1.0868611642      -18.7268732137        5.1888880775  MEMB      6               0.0000000000
       736         6  POPC      H101           -0.6344136440      -17.7439487772        4.9910232863  MEMB      6               0.0000000000
       737         6  POPC      C211           -0.1988939610      -19.9855019174        5.2860564903  MEMB      6               0.0000000000
       738         6  POPC      H11R           -0.7404743122      -20.8665357226        5.6920010507  MEMB      6               0.0000000000
       739         6  POPC      H11S            0.5988786536      -19.8234419583        6.0421097206  MEMB      6               0.0000000000
       740         6  POPC      C212            0.7078853405      -20.3975889007        4.0709894258  MEMB      6               0.0000000000
       741         6  POPC      H12R            1.0759185511      -21.3994467969        4.3794586687  MEMB      6               0.0000000000
       742         6  POPC      H12S            1.5519617144      -19.6753821982        4.0875336453  MEMB      6               0.0000000000
       743         6  POPC      C213            0.0305458622      -20.1588510275        2.6507216393  MEMB      6               0.0000000000
       744         6  POPC      H13R            0.3051559249      -19.1152191296        2.3866330980  MEMB      6               0.0000000000
       745         6  POPC      H13S           -1.0460936731      -20.4297752945        2.6927725388  MEMB      6               0.0000000000
       746         6  POPC      C214            0.6418104648      -20.9614461365        1.4866090924  MEMB      6               0.0000000000
       747         6  POPC      H14R            1.6401461302      -20.4896873336        1.3637622209  MEMB      6               0.0000000000
       748         6  POPC      H14S            0.1189725827      -20.7361325207        0.5325665016  MEMB      6               0.0000000000
       749         6  POPC      C215            0.5753389661      -22.4522433858        1.6163121335  MEMB      6               0.0000000000
       750         6  POPC      H15R           -0.4972349570      -22.7416742689        1.6279784961  MEMB      6               0.0000000000
       751         6  POPC      H15S            1.0618059218      -22.7011349858        2.5836406479  MEMB      6               0.0000000000
       752         6  POPC      C216            1.2548573371      -23.1122213530        0.4260043679  MEMB      6               0.0000000000
       753         6  POPC      H16R            2.3425960207      -23.2657770064        0.5920339738  MEMB      6               0.0000000000
       754         6  POPC      H16S            1.0932972878      -22.6951663933       -0.5909938612  MEMB      6               0.0000000000
       755         6  POPC      C217            0.6710933440      -24.5104803405        0.3074527856  MEMB      6               0.0000000000
       756         6  POPC      H17R            1.2393494535      -25.0960490362       -0.4465463213  MEMB      6               0.0000000000
       757         6  POPC      H17S           -0.3852823418      -24.4264836393       -0.0262183937  MEMB      6               0.0000000000
       758         6  POPC      C218            0.5056064619      -25.2511463941        1.6572171634  MEMB      6               0.0000000000
       759         6  POPC      H18R            0.1390501334      -26.2944536420        1.5501314206  MEMB      6               0.0000000000
       760         6  POPC      H18S           -0.1118967548      -24.5933899845        2.3055746549  MEMB      6               0.0000000000
       761         6  POPC      H18T            1.5076643389      -25.1643500207        2.1290927326  MEMB      6               0.0000000000
       762         6  POPC      C33             0.0140295818      -20.8991625939       10.8433810805  MEMB      6               0.0000000000
       763         6  POPC      H3X            -0.4609513038      -20.0068865307       11.3044208010  MEMB      6               0.0000000000
       764         6  POPC      H3Y            -0.7510485225      -21.6921821699       10.9851430652  MEMB      6               0.0000000000
       765         6  POPC      C34             0.3183893363      -20.6012278628        9.3861690252  MEMB      6               0.0000000000
       766         6  POPC      H4X             1.0937260637      -19.8080735302        9.3222912562  MEMB      6               0.0000000000
       767         6  POPC      H4Y            -0.6052096360      -20.1273323649        8.9903036780  MEMB      6               0.0000000000
       768         6  POPC      C35             0.8211064554      -21.7486425070        8.5282702524  MEMB      6               0.0000000000
       769         6  POPC      H5X             1.8195160605      -22.0249488401        8.9297108801  MEMB      6               0.0000000000
       770         6  POPC      H5Y             0.8609457276      -21.3227811139        7.5029044434  MEMB      6               0.0000000000
       771         6  POPC      C36            -0.1966718750      -22.9505774396        8.4816177848  MEMB      6               0.0000000000
       772         6  POPC      H6X            -1.2164373827      -22.5303153437        8.6149545734  MEMB      6               0.0000000000
       773         6  POPC      H6Y             0.1426623079      -23.6847622991        9.2432913720  MEMB      6               0.0000000000
       774         6  POPC      C37            -0.1579929104      -23.6474898794        7.1053120228  MEMB      6               0.0000000000
       775         6  POPC      H7X             0.8991018260      -23.9480616437        6.9424349607  MEMB      6               0.0000000000
       776         6  POPC      H7Y            -0.4391729466      -22.9635618328        6.2761544970  MEMB      6               0.0000000000
       777         6  POPC      C38            -0.9210736789      -24.9084715963        6.9173947375  MEMB      6               0.0000000000
       778         6  POPC      H8X            -0.5627279291      -25.6425594483        7.6704055705  MEMB      6               0.0000000000
       779         6  POPC      H8Y            -0.6512684871      -25.3963774372        5.9564196362  MEMB      6               0.0000000000
       780         6  POPC      C39            -2.4585706825      -24.8334155837        6.8561768355  MEMB      6               0.0000000000
       781         6  POPC      H9X            -2.9888136247      -24.3215311438        7.6875239172  MEMB      6               0.0000000000
       782         6  POPC      H9Y            -2.5845049557      -25.9341459564        6.9389659717  MEMB      6               0.0000000000
       783         6  POPC      C310           -2.9728810034      -24.3959972453        5.4626038964  MEMB      6               0.0000000000
       784         6  POPC      H10X           -2.4757090383      -25.0003363164        4.6739874167  MEMB      6               0.0000000000
       785         6  POPC      H10Y           -2.8515072200      -23.2979000673        5.3452500841  MEMB      6               0.0000000000
       786         6  POPC      C311           -4.4309052750      -24.7207437890        5.2559802570  MEMB      6               0.0000000000
       787         6  POPC      H11X           -5.1745785709      -24.2319696573        5.9210892412  MEMB      6               0.0000000000
       788         6  POPC      H11Y           -4.4857107620      -25.8059649059        5.4875241363  MEMB      6               0.0000000000
       789         6  POPC      C312           -5.0506990262      -24.5922184507        3.8209580639  MEMB      6               0.0000000000
       790         6  POPC      H12X           -6.0108133116      -25.1267365033        3.9846413934  MEMB      6               0.0000000000
       791         6  POPC      H12Y           -4.5700210656      -25.2712501189        3.0846256682  MEMB      6               0.0000000000
       792         6  POPC      C313           -5.3369772929      -23.2421057863        3.2418448042  MEMB      6               0.0000000000
       793         6  POPC      H13X           -5.0433007790      -22.5124448277        4.0264913709  MEMB      6               0.0000000000
       794         6  POPC      H13Y           -6.3742150737      -23.1820841209        2.8483271958  MEMB      6               0.0000000000
       795         6  POPC      C314           -4.2853060623      -22.9094165605        2.0918443984  MEMB      6               0.0000000000
       796         6  POPC      H14X           -4.6021550781      -23.6298293457        1.3076678535  MEMB      6               0.0000000000
       797         6  POPC      H14Y           -3.2714527160      -23.1952379134        2.4450137836  MEMB      6               0.0000000000
       798         6  POPC      C315           -4.3481230148      -21.4568836090        1.6300153715  MEMB      6               0.0000000000
       799         6  POPC      H15X           -4.3920254662      -20.8238429542        2.5419667999  MEMB      6               0.0000000000
       800         6  POPC      H15Y           -5.2727836802      -21.4364746066        1.0144611548  MEMB      6               0.0000000000
       801         6  POPC      C316           -3.2082648448      -20.9305529221        0.7543193208  MEMB      6               0.0000000000
       802         6  POPC      H16X           -2.2057485847      -21.3185997402        1.0348579099  MEMB      6               0.0000000000
       803         6  POPC      H16Y           -3.2250925186      -19.8474289393        0.5075800515  MEMB      6               0.0000000000
       804         6  POPC      H16Z           -3.4136726880      -21.3229028007       -0.2645972524  MEMB      6               0.0000000000
       805         7  POPC      N              -5.6920343778        3.0766082010       18.3398875801  MEMB      7               0.0000000000
       806         7  POPC      C12            -6.5533010106        2.6086536832       19.3763529744  MEMB      7               0.0000000000
       807         7  POPC      H12A           -6.9772711075        3.4528744753       19.8997463553  MEMB      7               0.0000000000
       808         7  POPC      H12B           -6.0867406563        2.1889494471       20.2553124050  MEMB      7               0.0000000000
       809         7  POPC      C13            -4.9468596510        1.9541389436       17.6189176442  MEMB      7               0.0000000000
       810         7  POPC      H13A           -4.2185206546        2.3748882886       16.9415017314  MEMB      7               0.0000000000
       811         7  POPC      H13B           -4.4570484811        1.1782767562       18.1885868655  MEMB      7               0.0000000000
       812         7  POPC      H13C           -5.6333670537        1.4560286920       16.9503415909  MEMB      7               0.0000000000
       813         7  POPC      C14            -6.5844657226        3.7869011155       17.2325258897  MEMB      7               0.0000000000
       814         7  POPC      H14A           -7.1791102783        4.6212089601       17.5741808804  MEMB      7               0.0000000000
       815         7  POPC      H14B           -5.9704322993        4.0648231329       16.3886527364  MEMB      7               0.0000000000
       816         7  POPC      H14C           -7.2155038360        3.0541556275       16.7516153677  MEMB      7               0.0000000000
       817         7  POPC      C15            -4.6687760391        4.0632475632       18.9355953573  MEMB      7               0.0000000000
       818         7  POPC      H15A           -3.9708954679        4.2518033249       18.1332178182  MEMB      7               0.0000000000
       819         7  POPC      H15B           -4.1002269700        3.5392329626       19.6896250544  MEMB      7               0.0000000000
       820         7  POPC      H15C           -5.1883571520        4.9608865939       19.2367261949  MEMB      7               0.0000000000
       821         7  POPC      C11            -7.8293297361        1.7195212225       19.0452673119  MEMB      7               0.0000000000
       822         7  POPC      H11A           -8.3552756308        2.2897459650       18.2499399968  MEMB      7               0.0000000000
       823         7  POPC      H11B           -8.5888308032        1.6259410650       19.8507000236  MEMB      7               0.0000000000
       824         7  POPC      P              -6.8725559233       -0.6135065955       19.7099848870  MEMB      7               0.0000000000
       825         7  POPC      O13            -6.8918963096        0.0161039182       21.0458782366  MEMB      7               0.0000000000
       826         7  POPC      O14            -5.5978246742       -1.2620366432       19.3982650289  MEMB      7               0.0000000000
       827         7  POPC      O12            -7.3050353237        0.4758298168       18.5935814731  MEMB      7               0.0000000000
       828         7  POPC      O11            -8.0640303754       -1.6439767678       19.7037435789  MEMB      7               0.0000000000
       829         7  POPC      C1             -9.2306494039       -1.4660071379       18.9850281296  MEMB      7               0.0000000000
       830         7  POPC      HA             -9.5487395941       -0.4020527811       19.0188015891  MEMB      7               0.0000000000
       831         7  POPC      HB            -10.0081043935       -1.9561483012       19.6092449456  MEMB      7               0.0000000000
       832         7  POPC      C2             -9.1487815133       -2.0519267501       17.6170488806  MEMB      7               0.0000000000
       833         7  POPC      HS             -9.3166849078       -3.1308768022       17.8219775454  MEMB      7               0.0000000000
       834         7  POPC      O21            -7.9453936114       -1.7709209186       16.9280779520  MEMB      7               0.0000000000
       835         7  POPC      C21            -7.3243016025       -2.6666345500       16.2270928442  MEMB      7               0.0000000000
       836         7  POPC      O22            -7.8963573774       -3.7160436711       15.9716143250  MEMB      7               0.0000000000
       837         7  POPC      C22            -5.9318714859       -2.4063149269       15.8842921343  MEMB      7               0.0000000000
       838         7  POPC      H2R            -5.3065321280       -3.3226073511       15.9449526334  MEMB      7               0.0000000000
       839         7  POPC      H2S            -5.5834294282       -1.5352878765       16.4794569607  MEMB      7               0.0000000000
       840         7  POPC      C3            -10.3617454827       -1.5271977704       16.7857374451  MEMB      7               0.0000000000
       841         7  POPC      HX            -11.3035778412       -1.6088561767       17.3693510924  MEMB      7               0.0000000000
       842         7  POPC      HY            -10.4751172267       -2.1430935152       15.8680552691  MEMB      7               0.0000000000
       843         7  POPC      O31           -10.2121638908       -0.1556198159       16.4379612085  MEMB      7               0.0000000000
       844         7  POPC      C31            -9.6642439516        0.0037045137       15.2815336193  MEMB      7               0.0000000000
       845         7  POPC      O32            -9.5071398226       -0.7604294164       14.3457177317  MEMB      7               0.0000000000
       846         7  POPC      C32            -9.0553092001        1.3744397450       15.2764726896  MEMB      7               0.0000000000
       847         7  POPC      H2X            -8.1163520772        1.3171648011       15.8675731576  MEMB      7               0.0000000000
       848         7  POPC      H2Y            -9.7817012979        2.0640664035       15.7571914927  MEMB      7               0.0000000000
       849         7  POPC      C23            -5.8559058190       -1.9912816459       14.4100632177  MEMB      7               0.0000000000
       850         7  POPC      H3R            -6.6528893414       -1.2193551380       14.3529009204  MEMB      7               0.0000000000
       851         7  POPC      H3S            -6.1231476609       -2.8676624732       13.7816846202  MEMB      7               0.0000000000
       852         7  POPC      C24            -4.4368880643       -1.5632363183       13.8916807168  MEMB      7               0.0000000000
       853         7  POPC      H4R            -3.7542886859       -2.3729966058       14.2273398468  MEMB      7               0.0000000000
       854         7  POPC      H4S            -4.1682493822       -0.5717427108       14.3148769579  MEMB      7               0.0000000000
       855         7  POPC      C25            -4.4098509469       -1.3917187420       12.3861007463  MEMB      7               0.0000000000
       856         7  POPC      H5R            -4.8678059736       -2.2522106562       11.8530416889  MEMB      7               0.0000000000
       857         7  POPC      H5S            -3.3363641857       -1.2329809444       12.1478801066  MEMB      7               0.0000000000
       858         7  POPC      C26            -5.0284748004       -0.0730110878       11.8203087582  MEMB      7               0.0000000000
       859         7  POPC      H6R            -4.7155796130        0.8122830340       12.4141702033  MEMB      7               0.0000000000
       860         7  POPC      H6S            -6.0800935757       -0.3215638237       12.0784568142  MEMB      7               0.0000000000
       861         7  POPC      C27            -4.8365222219        0.1524346739       10.2938617803  MEMB      7               0.0000000000
       862         7  POPC      H7R            -3.7559952826        0.2717225865       10.0646178800  MEMB      7               0.0000000000
       863         7  POPC      H7S            -5.3287567588        1.0838497311        9.9410274744  MEMB      7               0.0000000000
       864         7  POPC      C28            -5.3191560421       -0.9686808721        9.4267733834  MEMB      7               0.0000000000
       865         7  POPC      H8R            -5.0450664846       -1.9467080808        9.8769494065  MEMB      7               0.0000000000
       866         7  POPC      H8S            -4.7769151705       -1.0824014834        8.4637758846  MEMB      7               0.0000000000
       867         7  POPC      C29            -6.8806463780       -1.0146089566        9.2755277308  MEMB      7               0.0000000000
       868         7  POPC      H91            -7.4096827844       -0.6733670971       10.1775666769  MEMB      7               0.0000000000
       869         7  POPC      C210           -7.6229759901       -1.3189169138        8.1465351691  MEMB      7               0.0000000000
       870         7  POPC      H101           -8.7222665698       -1.3458873929        8.1753943305  MEMB      7               0.0000000000
       871         7  POPC      C211           -7.0305731592       -1.6902015594        6.8188311647  MEMB      7               0.0000000000
       872         7  POPC      H11R           -5.9545437324       -1.9517826628        6.9085909201  MEMB      7               0.0000000000
       873         7  POPC      H11S           -7.1483275388       -0.9953127748        5.9600040092  MEMB      7               0.0000000000
       874         7  POPC      C212           -7.7756555277       -2.9087103680        6.2995939738  MEMB      7               0.0000000000
       875         7  POPC      H12R           -8.8470395547       -2.6577445371        6.1463834891  MEMB      7               0.0000000000
       876         7  POPC      H12S           -7.8054319449       -3.6693638944        7.1088167320  MEMB      7               0.0000000000
       877         7  POPC      C213           -7.0870769289       -3.6019868815        5.0449164076  MEMB      7               0.0000000000
       878         7  POPC      H13R           -7.6389363859       -4.5536649283        4.8897359175  MEMB      7               0.0000000000
       879         7  POPC      H13S           -6.0211267335       -3.7750328161        5.3059282255  MEMB      7               0.0000000000
       880         7  POPC      C214           -7.4407902044       -2.9498149098        3.6759976377  MEMB      7               0.0000000000
       881         7  POPC      H14R           -7.0406277261       -1.9134356865        3.6655545955  MEMB      7               0.0000000000
       882         7  POPC      H14S           -8.5377509294       -2.7832991369        3.7331855365  MEMB      7               0.0000000000
       883         7  POPC      C215           -7.0175533099       -3.7882135419        2.4875407915  MEMB      7               0.0000000000
       884         7  POPC      H15R           -7.6320828841       -3.3129256865        1.6933266433  MEMB      7               0.0000000000
       885         7  POPC      H15S           -7.3511095134       -4.8472660598        2.4492188716  MEMB      7               0.0000000000
       886         7  POPC      C216           -5.5468581637       -3.8999025909        2.1216350225  MEMB      7               0.0000000000
       887         7  POPC      H16R           -5.4330591937       -4.6344167711        1.2958866474  MEMB      7               0.0000000000
       888         7  POPC      H16S           -4.9970115141       -4.2915858261        3.0040031844  MEMB      7               0.0000000000
       889         7  POPC      C217           -4.7443277274       -2.5787849862        1.6779043480  MEMB      7               0.0000000000
       890         7  POPC      H17R           -3.7299564654       -2.7993780225        1.2820387009  MEMB      7               0.0000000000
       891         7  POPC      H17S           -4.6485345872       -1.9856337529        2.6124183893  MEMB      7               0.0000000000
       892         7  POPC      C218           -5.4012176933       -1.7203015655        0.5830556561  MEMB      7               0.0000000000
       893         7  POPC      H18R           -5.4889128465       -0.6491698805        0.8646732814  MEMB      7               0.0000000000
       894         7  POPC      H18S           -6.3141898900       -2.2538520168        0.2422847408  MEMB      7               0.0000000000
       895         7  POPC      H18T           -4.8593022669       -1.8045043775       -0.3831527225  MEMB      7               0.0000000000
       896         7  POPC      C33            -8.5599066568        1.6736934353       13.7954173609  MEMB      7               0.0000000000
       897         7  POPC      H3X            -7.9831650328        0.8359046658       13.3484272095  MEMB      7               0.0000000000
       898         7  POPC      H3Y            -7.7358191066        2.4151998729       13.8686884669  MEMB      7               0.0000000000
       899         7  POPC      C34            -9.5448687514        2.2838870865       12.8766732631  MEMB      7               0.0000000000
       900         7  POPC      H4X           -10.2553762417        2.9126665733       13.4547185214  MEMB      7               0.0000000000
       901         7  POPC      H4Y           -10.1236144065        1.4588406859       12.4090491606  MEMB      7               0.0000000000
       902         7  POPC      C35            -9.0364241201        3.2467912566       11.7725876844  MEMB      7               0.0000000000
       903         7  POPC      H5X            -8.3819754706        4.1056656274       12.0340315584  MEMB      7               0.0000000000
       904         7  POPC      H5Y            -9.8502277357        3.6364118844       11.1243283571  MEMB      7               0.0000000000
       905         7  POPC      C36            -8.2643662504        2.4275440112       10.7779090053  MEMB      7               0.0000000000
       906         7  POPC      H6X            -8.7283050799        1.4180923963       10.7873668961  MEMB      7               0.0000000000
       907         7  POPC      H6Y            -7.2665722457        2.1912826999       11.2055871135  MEMB      7               0.0000000000
       908         7  POPC      C37            -8.2458049067        3.1675788080        9.3843586261  MEMB      7               0.0000000000
       909         7  POPC      H7X            -7.8857157913        4.2059890511        9.5467206391  MEMB      7               0.0000000000
       910         7  POPC      H7Y            -9.3148467609        3.1895241822        9.0827152070  MEMB      7               0.0000000000
       911         7  POPC      C38            -7.3549370161        2.5271572312        8.3213104477  MEMB      7               0.0000000000
       912         7  POPC      H8X            -7.6353868692        1.4883967927        8.0444614856  MEMB      7               0.0000000000
       913         7  POPC      H8Y            -6.3709819763        2.3760998809        8.8146010783  MEMB      7               0.0000000000
       914         7  POPC      C39            -7.1580354699        3.4454617275        7.0727365763  MEMB      7               0.0000000000
       915         7  POPC      H9X            -6.4549875137        2.9356912594        6.3797868711  MEMB      7               0.0000000000
       916         7  POPC      H9Y            -6.6690931223        4.4008881228        7.3598208158  MEMB      7               0.0000000000
       917         7  POPC      C310           -8.5270740851        3.8144153534        6.3973794512  MEMB      7               0.0000000000
       918         7  POPC      H10X           -8.3161040321        4.6306621553        5.6738088339  MEMB      7               0.0000000000
       919         7  POPC      H10Y           -9.0537251367        4.3482864023        7.2170999163  MEMB      7               0.0000000000
       920         7  POPC      C311           -9.2275802407        2.7175547547        5.6715604660  MEMB      7               0.0000000000
       921         7  POPC      H11X          -10.0416472920        3.3307599068        5.2292991319  MEMB      7               0.0000000000
       922         7  POPC      H11Y           -9.5345984148        1.8972412707        6.3550419852  MEMB      7               0.0000000000
       923         7  POPC      C312           -8.4513638881        2.2063379947        4.5238897068  MEMB      7               0.0000000000
       924         7  POPC      H12X           -7.5070577066        1.7761739620        4.9208345159  MEMB      7               0.0000000000
       925         7  POPC      H12Y           -8.2036671865        3.0295508275        3.8201226759  MEMB      7               0.0000000000
       926         7  POPC      C313           -9.3306550723        1.1711446214        3.7660328677  MEMB      7               0.0000000000
       927         7  POPC      H13X          -10.3168500437        1.6589159367        3.6116974920  MEMB      7               0.0000000000
       928         7  POPC      H13Y           -9.4382594959        0.2932607325        4.4383890688  MEMB      7               0.0000000000
       929         7  POPC      C314           -8.7140667889        0.6664670230        2.4136688311  MEMB      7               0.0000000000
       930         7  POPC      H14X           -9.3379999266       -0.1833293740        2.0631355002  MEMB      7               0.0000000000
       931         7  POPC      H14Y           -7.6338422986        0.4145751451        2.4768082555  MEMB      7               0.0000000000
       932         7  POPC      C315           -8.8796707200        1.8259722453        1.3363698743  MEMB      7               0.0000000000
       933         7  POPC      H15X           -8.3009332676        2.7432597957        1.5771359688  MEMB      7               0.0000000000
       934         7  POPC      H15Y           -9.9697740944        2.0391474323        1.3598672945  MEMB      7               0.0000000000
       935         7  POPC      C316           -8.5132276426        1.4210530001       -0.0693768420  MEMB      7               0.0000000000
       936         7  POPC      H16X           -9.1823372321        0.5979734875       -0.3997620372  MEMB      7               0.0000000000
       937         7  POPC      H16Y           -7.4699098269        1.0409738481       -0.1061021296  MEMB      7               0.0000000000
       938         7  POPC      H16Z           -8.4402792904        2.3683184077       -0.6453007450  MEMB      7               0.0000000000
       939         8  POPC      N               8.5667031758       -3.1422826859       21.0483440458  MEMB      8               0.0000000000
       940         8  POPC      C12             7.3789708225       -2.2321351354       20.6531678575  MEMB      8               0.0000000000
       941         8  POPC      H12A            7.2531159679       -1.5116797237       21.4478404403  MEMB      8               0.0000000000
       942         8  POPC      H12B            6.4817950035       -2.8333469426       20.6487100878  MEMB      8               0.0000000000
       943         8  POPC      C13             8.2650663485       -3.4973154739       22.5512908082  MEMB      8               0.0000000000
       944         8  POPC      H13A            8.9599917757       -4.2756063580       22.8301134649  MEMB      8               0.0000000000
       945         8  POPC      H13B            8.4680670668       -2.6196613271       23.1470373087  MEMB      8               0.0000000000
       946         8  POPC      H13C            7.2600568687       -3.8762966014       22.6641144282  MEMB      8               0.0000000000
       947         8  POPC      C14             8.5314520422       -4.4317217060       20.2777587535  MEMB      8               0.0000000000
       948         8  POPC      H14A            7.5721536630       -4.8718035936       20.5068323156  MEMB      8               0.0000000000
       949         8  POPC      H14B            8.6784366796       -4.4090809774       19.2080471719  MEMB      8               0.0000000000
       950         8  POPC      H14C            9.2708301846       -5.1591845314       20.5786207603  MEMB      8               0.0000000000
       951         8  POPC      C15             9.8546772510       -2.3258139412       20.8446770592  MEMB      8               0.0000000000
       952         8  POPC      H15A            9.7763492381       -1.3921838597       21.3818917298  MEMB      8               0.0000000000
       953         8  POPC      H15B           10.0753045772       -2.1692111769       19.7991154676  MEMB      8               0.0000000000
       954         8  POPC      H15C           10.6545125914       -2.8287143685       21.3678924830  MEMB      8               0.0000000000
       955         8  POPC      C11             7.3809787176       -1.5422414315       19.2975398229  MEMB      8               0.0000000000
       956         8  POPC      H11A            7.9120197353       -0.5724429557       19.4062017224  MEMB      8               0.0000000000
       957         8  POPC      H11B            6.2923471181       -1.3725926842       19.1546356707  MEMB      8               0.0000000000
       958         8  POPC      P               7.9834336216       -1.7861399628       16.7979446788  MEMB      8               0.0000000000
       959         8  POPC      O13             8.2213661345       -2.8692710357       15.8210511905  MEMB      8               0.0000000000
       960         8  POPC      O14             8.8978160869       -0.6410130907       16.7121972091  MEMB      8               0.0000000000
       961         8  POPC      O12             7.9532546277       -2.3883209216       18.3005250273  MEMB      8               0.0000000000
       962         8  POPC      O11             6.5041576841       -1.2666169545       16.6955035475  MEMB      8               0.0000000000
       963         8  POPC      C1              5.4337999657       -2.1538206263       16.4920158776  MEMB      8               0.0000000000
       964         8  POPC      HA              4.7297124203       -1.8411097898       17.2925118228  MEMB      8               0.0000000000
       965         8  POPC      HB              5.6409169123       -3.2079057336       16.7754381819  MEMB      8               0.0000000000
       966         8  POPC      C2              4.8526698512       -2.0643151159       15.0020095601  MEMB      8               0.0000000000
       967         8  POPC      HS              3.9941936946       -2.7693097400       15.0199599310  MEMB      8               0.0000000000
       968         8  POPC      O21             5.8125490187       -2.7217278536       14.1742222001  MEMB      8               0.0000000000
       969         8  POPC      C21             5.4178219819       -3.0595197226       12.9076831864  MEMB      8               0.0000000000
       970         8  POPC      O22             4.4131112347       -2.7281013272       12.3540672372  MEMB      8               0.0000000000
       971         8  POPC      C22             6.4541916396       -3.9933821439       12.2518146868  MEMB      8               0.0000000000
       972         8  POPC      H2R             7.2960516817       -3.3931912051       11.8451654325  MEMB      8               0.0000000000
       973         8  POPC      H2S             5.9308248666       -4.5789761484       11.4660108431  MEMB      8               0.0000000000
       974         8  POPC      C3              4.5315024863       -0.6311897391       14.5659801767  MEMB      8               0.0000000000
       975         8  POPC      HX              3.8827873349       -0.1639805054       15.3374755899  MEMB      8               0.0000000000
       976         8  POPC      HY              3.9619655464       -0.6526551464       13.6123092710  MEMB      8               0.0000000000
       977         8  POPC      O31             5.7411565418        0.1105050951       14.4566527352  MEMB      8               0.0000000000
       978         8  POPC      C31             6.0466672239        0.5739558562       13.2374212790  MEMB      8               0.0000000000
       979         8  POPC      O32             5.3022684620        0.6139226370       12.2572702847  MEMB      8               0.0000000000
       980         8  POPC      C32             7.4568158369        1.2574750135       13.3052348603  MEMB      8               0.0000000000
       981         8  POPC      H2X             7.5157752910        1.8364298378       14.2516259255  MEMB      8               0.0000000000
       982         8  POPC      H2Y             7.6263390755        1.9088036090       12.4212927186  MEMB      8               0.0000000000
       983         8  POPC      C23             6.9502240448       -5.0444479894       13.3286007410  MEMB      8               0.0000000000
       984         8  POPC      H3R             6.1520606459       -5.7644863719       13.6093157266  MEMB      8               0.0000000000
       985         8  POPC      H3S             7.0664032844       -4.7049990171       14.3800745124  MEMB      8               0.0000000000
       986         8  POPC      C24             8.1853541303       -5.8243962820       12.7647939513  MEMB      8               0.0000000000
       987         8  POPC      H4R             7.9222667668       -6.2180227185       11.7597245356  MEMB      8               0.0000000000
       988         8  POPC      H4S             8.3816557240       -6.6870127228       13.4368651000  MEMB      8               0.0000000000
       989         8  POPC      C25             9.3716814309       -4.9268086765       12.5980648013  MEMB      8               0.0000000000
       990         8  POPC      H5R             9.4741537229       -4.2388868123       13.4644275122  MEMB      8               0.0000000000
       991         8  POPC      H5S             9.2596761717       -4.3578969491       11.6503757143  MEMB      8               0.0000000000
       992         8  POPC      C26            10.7290505084       -5.6389278082       12.4909987795  MEMB      8               0.0000000000
       993         8  POPC      H6R            10.8492420253       -6.1484720184       13.4709170670  MEMB      8               0.0000000000
       994         8  POPC      H6S            11.4510519500       -4.8462372780       12.2000063264  MEMB      8               0.0000000000
       995         8  POPC      C27            10.7786373011       -6.6339975054       11.3090344567  MEMB      8               0.0000000000
       996         8  POPC      H7R            10.0275216431       -7.3742952539       11.6584699058  MEMB      8               0.0000000000
       997         8  POPC      H7S            11.7313944427       -7.2030062668       11.2560790435  MEMB      8               0.0000000000
       998         8  POPC      C28            10.3491128501       -6.1811380071        9.9299114897  MEMB      8               0.0000000000
       999         8  POPC      H8R            10.9486470906       -5.2838034589        9.6659600529  MEMB      8               0.0000000000
      1000         8  POPC      H8S             9.4218775742       -5.5691291844        9.9289468846  MEMB      8               0.0000000000
      1001         8  POPC      C29            10.0758560136       -7.1439709456        8.8323363246  MEMB      8               0.0000000000
      1002         8  POPC      H91             9.4134777935       -8.0002626721        9.0273237702  MEMB      8               0.0000000000
      1003         8  POPC      C210           10.7954373495       -7.1481491111        7.6120271844  MEMB      8               0.0000000000
      1004         8  POPC      H101           10.7180079539       -7.9697695555        6.8847414854  MEMB      8               0.0000000000
      1005         8  POPC      C211           11.8788886188       -6.1860386345        7.2520396005  MEMB      8               0.0000000000
      1006         8  POPC      H11R           12.8365891432       -6.7254303952        7.0902142254  MEMB      8               0.0000000000
      1007         8  POPC      H11S           12.0209780584       -5.3024289261        7.9103443431  MEMB      8               0.0000000000
      1008         8  POPC      C212           11.6005237262       -5.5005414749        5.9110332047  MEMB      8               0.0000000000
      1009         8  POPC      H12R           11.6370932994       -6.2652450998        5.1059177156  MEMB      8               0.0000000000
      1010         8  POPC      H12S           12.4647370662       -4.8090822524        5.8143869834  MEMB      8               0.0000000000
      1011         8  POPC      C213           10.2672552212       -4.7252495016        5.8535429995  MEMB      8               0.0000000000
      1012         8  POPC      H13R           10.0198427327       -4.3004656400        6.8498693415  MEMB      8               0.0000000000
      1013         8  POPC      H13S            9.4523754848       -5.4414393627        5.6140358870  MEMB      8               0.0000000000
      1014         8  POPC      C214           10.1904431622       -3.5302024409        4.8657074400  MEMB      8               0.0000000000
      1015         8  POPC      H14R           11.0300180688       -2.8264694752        5.0506268423  MEMB      8               0.0000000000
      1016         8  POPC      H14S            9.2679444643       -2.9345282168        5.0344951120  MEMB      8               0.0000000000
      1017         8  POPC      C215           10.3007818564       -3.9392079390        3.4686953071  MEMB      8               0.0000000000
      1018         8  POPC      H15R            9.4864816099       -4.6866052872        3.3562956966  MEMB      8               0.0000000000
      1019         8  POPC      H15S           11.2858536059       -4.4388108367        3.3488963184  MEMB      8               0.0000000000
      1020         8  POPC      C216           10.2327180390       -2.8492042621        2.3819758339  MEMB      8               0.0000000000
      1021         8  POPC      H16R           10.6800733034       -1.8822084951        2.6967976519  MEMB      8               0.0000000000
      1022         8  POPC      H16S            9.1982761354       -2.5963256945        2.0652689532  MEMB      8               0.0000000000
      1023         8  POPC      C217           10.9627838826       -3.1872127193        1.0635549821  MEMB      8               0.0000000000
      1024         8  POPC      H17R           11.9929942677       -3.5832199752        1.1906988099  MEMB      8               0.0000000000
      1025         8  POPC      H17S           11.1250207687       -2.1718703024        0.6427467831  MEMB      8               0.0000000000
      1026         8  POPC      C218           10.2570808198       -4.0342727915        0.0142615271  MEMB      8               0.0000000000
      1027         8  POPC      H18R           10.9653788569       -4.2449688632       -0.8153409837  MEMB      8               0.0000000000
      1028         8  POPC      H18S            9.3950037055       -3.4623490351       -0.3907655557  MEMB      8               0.0000000000
      1029         8  POPC      H18T            9.9524190309       -5.0051896725        0.4601568012  MEMB      8               0.0000000000
      1030         8  POPC      C33             8.6580566022        0.2297553078       13.4134635995  MEMB      8               0.0000000000
      1031         8  POPC      H3X             8.3536227230       -0.6180310779       14.0637707077  MEMB      8               0.0000000000
      1032         8  POPC      H3Y             9.5979303849        0.6949073643       13.7803310953  MEMB      8               0.0000000000
      1033         8  POPC      C34             8.9360256615       -0.2503714883       12.0333277953  MEMB      8               0.0000000000
      1034         8  POPC      H4X             9.0904969696        0.6413831517       11.3889415923  MEMB      8               0.0000000000
      1035         8  POPC      H4Y             8.0083482074       -0.7009701533       11.6201740639  MEMB      8               0.0000000000
      1036         8  POPC      C35            10.1493402045       -1.1833667512       12.0921967566  MEMB      8               0.0000000000
      1037         8  POPC      H5X            10.0956735780       -1.9901536186       12.8541258518  MEMB      8               0.0000000000
      1038         8  POPC      H5Y            11.0955336247       -0.6275265954       12.2656350676  MEMB      8               0.0000000000
      1039         8  POPC      C36            10.2291365472       -1.9764460040       10.7520908370  MEMB      8               0.0000000000
      1040         8  POPC      H6X             9.3227105587       -2.5915746253       10.5668083994  MEMB      8               0.0000000000
      1041         8  POPC      H6Y            11.1511570568       -2.5951688404       10.7892576012  MEMB      8               0.0000000000
      1042         8  POPC      C37            10.5632086225       -1.0343603358        9.5137432096  MEMB      8               0.0000000000
      1043         8  POPC      H7X            11.1555709435       -1.6159711466        8.7753964285  MEMB      8               0.0000000000
      1044         8  POPC      H7Y            11.2145154689       -0.1899833633        9.8254282554  MEMB      8               0.0000000000
      1045         8  POPC      C38             9.2813003781       -0.5830553180        8.7198134146  MEMB      8               0.0000000000
      1046         8  POPC      H8X             9.5231728588        0.2368563056        8.0101912577  MEMB      8               0.0000000000
      1047         8  POPC      H8Y             8.4867787672       -0.2940824527        9.4406131731  MEMB      8               0.0000000000
      1048         8  POPC      C39             8.5624677462       -1.6620087820        7.9425457972  MEMB      8               0.0000000000
      1049         8  POPC      H9X             8.8550278266       -2.6792832820        8.2800100821  MEMB      8               0.0000000000
      1050         8  POPC      H9Y             8.9549628606       -1.7234862004        6.9050058440  MEMB      8               0.0000000000
      1051         8  POPC      C310            7.0433163503       -1.4578102371        7.9385327140  MEMB      8               0.0000000000
      1052         8  POPC      H10X            6.9326270924       -0.3747173463        7.7172220166  MEMB      8               0.0000000000
      1053         8  POPC      H10Y            6.6710053608       -1.7027947427        8.9562202143  MEMB      8               0.0000000000
      1054         8  POPC      C311            6.2950259555       -2.2914141869        6.8563512922  MEMB      8               0.0000000000
      1055         8  POPC      H11X            5.2751320996       -2.3926790619        7.2851665448  MEMB      8               0.0000000000
      1056         8  POPC      H11Y            6.7008043060       -3.3252244380        6.8263281748  MEMB      8               0.0000000000
      1057         8  POPC      C312            6.1406279582       -1.6819222915        5.4632453947  MEMB      8               0.0000000000
      1058         8  POPC      H12X            7.1024413669       -1.4485873846        4.9584765075  MEMB      8               0.0000000000
      1059         8  POPC      H12Y            5.5283838522       -0.7548549080        5.4583252425  MEMB      8               0.0000000000
      1060         8  POPC      C313            5.2700586094       -2.5585205359        4.5806938109  MEMB      8               0.0000000000
      1061         8  POPC      H13X            4.4590778266       -2.9957979310        5.2015156676  MEMB      8               0.0000000000
      1062         8  POPC      H13Y            5.8546707249       -3.4153583166        4.1827263066  MEMB      8               0.0000000000
      1063         8  POPC      C314            4.6182783461       -1.7441843399        3.4347034136  MEMB      8               0.0000000000
      1064         8  POPC      H14X            5.3827940649       -1.0857646086        2.9696003631  MEMB      8               0.0000000000
      1065         8  POPC      H14Y            3.8232584536       -1.0966829577        3.8624953395  MEMB      8               0.0000000000
      1066         8  POPC      C315            3.9943012520       -2.6410754437        2.3165674029  MEMB      8               0.0000000000
      1067         8  POPC      H15X            3.0405933283       -3.0454568535        2.7181118987  MEMB      8               0.0000000000
      1068         8  POPC      H15Y            4.6291302612       -3.5526698565        2.2990055307  MEMB      8               0.0000000000
      1069         8  POPC      C316            3.8254355509       -1.9926015100        1.0081122963  MEMB      8               0.0000000000
      1070         8  POPC      H16X            3.1909471111       -1.0916656409        1.1497446481  MEMB      8               0.0000000000
      1071         8  POPC      H16Y            3.3860522443       -2.6715187466        0.2463140077  MEMB      8               0.0000000000
      1072         8  POPC      H16Z            4.7697441218       -1.6045420477        0.5699194876  MEMB      8               0.0000000000
      1073         9  POPC      N               3.7456434740      -18.4414171357       18.9494944350  MEMB      9               0.0000000000
      1074         9  POPC      C12             3.8184539428      -16.9321752061       18.5980653343  MEMB      9               0.0000000000
      1075         9  POPC      H12A            2.8015851065      -16.6724608422       18.3432584981  MEMB      9               0.0000000000
      1076         9  POPC      H12B            4.3150710021      -16.8297654544       17.6445016658  MEMB      9               0.0000000000
      1077         9  POPC      C13             2.8105813560      -18.6740381217       20.1316318466  MEMB      9               0.0000000000
      1078         9  POPC      H13A            2.7386496592      -19.7383873947       20.3001148137  MEMB      9               0.0000000000
      1079         9  POPC      H13B            3.2355952468      -18.1629379978       20.9828311133  MEMB      9               0.0000000000
      1080         9  POPC      H13C            1.8661719601      -18.3171026285       19.7481109644  MEMB      9               0.0000000000
      1081         9  POPC      C14             3.1837739420      -19.0914690202       17.7501130749  MEMB      9               0.0000000000
      1082         9  POPC      H14A            3.8720765558      -19.0422891613       16.9193176945  MEMB      9               0.0000000000
      1083         9  POPC      H14B            3.0394355075      -20.1404522160       17.9627176628  MEMB      9               0.0000000000
      1084         9  POPC      H14C            2.2217258148      -18.6364203183       17.5662819876  MEMB      9               0.0000000000
      1085         9  POPC      C15             5.1056001268      -18.9437522651       19.1474620515  MEMB      9               0.0000000000
      1086         9  POPC      H15A            5.6309284345      -18.8232013738       18.2115680181  MEMB      9               0.0000000000
      1087         9  POPC      H15B            5.0145252531      -20.0039913987       19.3318493574  MEMB      9               0.0000000000
      1088         9  POPC      H15C            5.6746790210      -18.3915346677       19.8806774830  MEMB      9               0.0000000000
      1089         9  POPC      C11             4.3558654248      -15.9860886649       19.6219520153  MEMB      9               0.0000000000
      1090         9  POPC      H11A            3.7228964414      -16.0788663951       20.5302820725  MEMB      9               0.0000000000
      1091         9  POPC      H11B            4.1548989912      -14.9255814402       19.3587827719  MEMB      9               0.0000000000
      1092         9  POPC      P               6.8496450374      -15.6262791968       18.9861497793  MEMB      9               0.0000000000
      1093         9  POPC      O13             7.2917571759      -16.8076151649       18.2173334235  MEMB      9               0.0000000000
      1094         9  POPC      O14             7.8584256142      -14.8342858110       19.7424189594  MEMB      9               0.0000000000
      1095         9  POPC      O12             5.6967388363      -16.1578928753       19.8723493398  MEMB      9               0.0000000000
      1096         9  POPC      O11             6.0447808386      -14.6365145331       17.9830297726  MEMB      9               0.0000000000
      1097         9  POPC      C1              6.8397292155      -13.7115848397       17.2612680611  MEMB      9               0.0000000000
      1098         9  POPC      HA              7.7820439224      -14.2164660551       16.9588469715  MEMB      9               0.0000000000
      1099         9  POPC      HB              6.9898744335      -12.8442744999       17.9391695231  MEMB      9               0.0000000000
      1100         9  POPC      C2              6.1093637338      -13.4789158422       15.8944389076  MEMB      9               0.0000000000
      1101         9  POPC      HS              5.2371342842      -12.8502241577       16.1742306550  MEMB      9               0.0000000000
      1102         9  POPC      O21             5.9057169194      -14.6950880308       15.1989873166  MEMB      9               0.0000000000
      1103         9  POPC      C21             4.7789024153      -15.2536499851       15.1716862309  MEMB      9               0.0000000000
      1104         9  POPC      O22             3.7379258565      -14.8261199036       15.6347981331  MEMB      9               0.0000000000
      1105         9  POPC      C22             4.8504602661      -16.5568691719       14.4013989217  MEMB      9               0.0000000000
      1106         9  POPC      H2R             4.8651458350      -16.3182282550       13.3164309559  MEMB      9               0.0000000000
      1107         9  POPC      H2S             3.9122448166      -17.1261753892       14.5744989432  MEMB      9               0.0000000000
      1108         9  POPC      C3              6.9181075854      -12.3882111058       14.9689605751  MEMB      9               0.0000000000
      1109         9  POPC      HX              7.8349842432      -12.9544872783       14.6987947831  MEMB      9               0.0000000000
      1110         9  POPC      HY              7.2977815021      -11.5405320397       15.5785578159  MEMB      9               0.0000000000
      1111         9  POPC      O31             6.0959145224      -11.9763291273       13.8993580294  MEMB      9               0.0000000000
      1112         9  POPC      C31             6.5508852935      -11.0887227114       12.9984177584  MEMB      9               0.0000000000
      1113         9  POPC      O32             7.6882630694      -10.6581272735       13.0363955320  MEMB      9               0.0000000000
      1114         9  POPC      C32             5.4497111871      -10.5963640292       11.9954429929  MEMB      9               0.0000000000
      1115         9  POPC      H2X             5.7273500147      -10.6574535690       10.9214294209  MEMB      9               0.0000000000
      1116         9  POPC      H2Y             5.3428288307       -9.5097198562       12.2006283265  MEMB      9               0.0000000000
      1117         9  POPC      C23             6.0428938280      -17.3955454154       14.9722923637  MEMB      9               0.0000000000
      1118         9  POPC      H3R             6.1458990995      -17.3097479136       16.0751747134  MEMB      9               0.0000000000
      1119         9  POPC      H3S             6.9242550422      -16.8691994255       14.5474592377  MEMB      9               0.0000000000
      1120         9  POPC      C24             5.9157071552      -18.8760230442       14.6939766380  MEMB      9               0.0000000000
      1121         9  POPC      H4R             4.8786887542      -19.1713772411       14.9617076833  MEMB      9               0.0000000000
      1122         9  POPC      H4S             6.5063125112      -19.4909565315       15.4062710955  MEMB      9               0.0000000000
      1123         9  POPC      C25             6.1333179838      -19.3271503085       13.2668943248  MEMB      9               0.0000000000
      1124         9  POPC      H5R             5.2824791653      -18.8855899936       12.7052731021  MEMB      9               0.0000000000
      1125         9  POPC      H5S             6.0808455146      -20.4362195476       13.3060561248  MEMB      9               0.0000000000
      1126         9  POPC      C26             7.4482114611      -18.9030766100       12.5973594172  MEMB      9               0.0000000000
      1127         9  POPC      H6R             8.3394787983      -19.3188287999       13.1141898260  MEMB      9               0.0000000000
      1128         9  POPC      H6S             7.3878347306      -17.7945782919       12.5536883451  MEMB      9               0.0000000000
      1129         9  POPC      C27             7.4814583264      -19.2755012323       11.0919937589  MEMB      9               0.0000000000
      1130         9  POPC      H7R             6.6066545080      -19.9025936692       10.8166860908  MEMB      9               0.0000000000
      1131         9  POPC      H7S             8.3415143112      -19.9763551428       11.0334396906  MEMB      9               0.0000000000
      1132         9  POPC      C28             7.6559082652      -17.9900695259       10.2203736536  MEMB      9               0.0000000000
      1133         9  POPC      H8R             6.7214443327      -17.4087418085       10.3725459506  MEMB      9               0.0000000000
      1134         9  POPC      H8S             7.7966440350      -18.3397213172        9.1752622822  MEMB      9               0.0000000000
      1135         9  POPC      C29             8.9232111991      -17.2280032996       10.6886718751  MEMB      9               0.0000000000
      1136         9  POPC      H91             9.5933302211      -17.7232630917       11.4067653301  MEMB      9               0.0000000000
      1137         9  POPC      C210            9.3613323452      -15.9972949486       10.3830148871  MEMB      9               0.0000000000
      1138         9  POPC      H101           10.2691204411      -15.5891598457       10.8513595116  MEMB      9               0.0000000000
      1139         9  POPC      C211            8.5782279724      -14.9949660249        9.5434439842  MEMB      9               0.0000000000
      1140         9  POPC      H11R            8.7313969741      -13.9692146318        9.9418082855  MEMB      9               0.0000000000
      1141         9  POPC      H11S            7.4849031522      -15.1904746480        9.5706104142  MEMB      9               0.0000000000
      1142         9  POPC      C212            8.8836857021      -14.8808406780        8.0322944319  MEMB      9               0.0000000000
      1143         9  POPC      H12R            8.7681138392      -15.8263518891        7.4604797101  MEMB      9               0.0000000000
      1144         9  POPC      H12S            9.8795698054      -14.3977657514        7.9365133852  MEMB      9               0.0000000000
      1145         9  POPC      C213            7.8907878085      -13.9868915770        7.3387802566  MEMB      9               0.0000000000
      1146         9  POPC      H13R            7.8576011331      -12.9713948943        7.7882094796  MEMB      9               0.0000000000
      1147         9  POPC      H13S            6.8780556160      -14.3312807457        7.6389321231  MEMB      9               0.0000000000
      1148         9  POPC      C214            7.9964603249      -14.0286801251        5.7640490141  MEMB      9               0.0000000000
      1149         9  POPC      H14R            7.8351641920      -15.0497642382        5.3569961942  MEMB      9               0.0000000000
      1150         9  POPC      H14S            9.0796007759      -13.8298576077        5.6170898132  MEMB      9               0.0000000000
      1151         9  POPC      C215            7.1102302816      -13.1329288180        4.9440524104  MEMB      9               0.0000000000
      1152         9  POPC      H15R            7.2433342183      -12.0787186755        5.2684676864  MEMB      9               0.0000000000
      1153         9  POPC      H15S            6.1075647155      -13.5616942805        5.1565218587  MEMB      9               0.0000000000
      1154         9  POPC      C216            7.4090453094      -13.1869123920        3.4626837539  MEMB      9               0.0000000000
      1155         9  POPC      H16R            6.6181897919      -12.6426201859        2.9035645974  MEMB      9               0.0000000000
      1156         9  POPC      H16S            7.4064576856      -14.2340271618        3.0913826770  MEMB      9               0.0000000000
      1157         9  POPC      C217            8.6882020429      -12.5532487986        2.9960069575  MEMB      9               0.0000000000
      1158         9  POPC      H17R            8.9850601426      -13.2954567229        2.2244346116  MEMB      9               0.0000000000
      1159         9  POPC      H17S            9.4200955671      -12.6312060829        3.8282176557  MEMB      9               0.0000000000
      1160         9  POPC      C218            8.8317166599      -11.1741324456        2.4264876796  MEMB      9               0.0000000000
      1161         9  POPC      H18R            8.1140694719      -11.0323890027        1.5902990196  MEMB      9               0.0000000000
      1162         9  POPC      H18S            9.7852709273      -10.8959108052        1.9288466258  MEMB      9               0.0000000000
      1163         9  POPC      H18T            8.5701855064      -10.4769018948        3.2509830845  MEMB      9               0.0000000000
      1164         9  POPC      C33             4.1313516741      -11.2686538161       12.3590737376  MEMB      9               0.0000000000
      1165         9  POPC      H3X             3.4183552344      -10.7241432736       11.7037374141  MEMB      9               0.0000000000
      1166         9  POPC      H3Y             3.8982348602      -11.1147108393       13.4343778052  MEMB      9               0.0000000000
      1167         9  POPC      C34             4.0143969455      -12.7001598241       11.9183074804  MEMB      9               0.0000000000
      1168         9  POPC      H4X             4.5451489030      -13.4321447936       12.5639245565  MEMB      9               0.0000000000
      1169         9  POPC      H4Y             4.4913556772      -12.7962196881       10.9195062102  MEMB      9               0.0000000000
      1170         9  POPC      C35             2.4928604590      -13.0998491297       12.0233489777  MEMB      9               0.0000000000
      1171         9  POPC      H5X             2.1042380879      -12.6820439135       11.0700738066  MEMB      9               0.0000000000
      1172         9  POPC      H5Y             1.9442074795      -12.7277000956       12.9148679000  MEMB      9               0.0000000000
      1173         9  POPC      C36             2.0734921409      -14.5592623699       12.1437548475  MEMB      9               0.0000000000
      1174         9  POPC      H6X             1.0197914166      -14.5578758510       11.7915702764  MEMB      9               0.0000000000
      1175         9  POPC      H6Y             2.0292867491      -14.8550052521       13.2137562812  MEMB      9               0.0000000000
      1176         9  POPC      C37             2.8883496696      -15.5322956294       11.3404056023  MEMB      9               0.0000000000
      1177         9  POPC      H7X             3.9325730708      -15.2494028081       11.5931714791  MEMB      9               0.0000000000
      1178         9  POPC      H7Y             2.8076240090      -15.2097414994       10.2803287726  MEMB      9               0.0000000000
      1179         9  POPC      C38             2.5360970131      -17.0589388074       11.5717489760  MEMB      9               0.0000000000
      1180         9  POPC      H8X             1.4452614283      -17.2213608684       11.4375215203  MEMB      9               0.0000000000
      1181         9  POPC      H8Y             2.8063348487      -17.3035250155       12.6212587292  MEMB      9               0.0000000000
      1182         9  POPC      C39             3.3210106239      -17.9530690548       10.6627452778  MEMB      9               0.0000000000
      1183         9  POPC      H9X             3.2018550360      -19.0466738169       10.8181530140  MEMB      9               0.0000000000
      1184         9  POPC      H9Y             4.3808614802      -17.7324639802       10.9124868437  MEMB      9               0.0000000000
      1185         9  POPC      C310            3.2663387355      -17.7350327676        9.1001654603  MEMB      9               0.0000000000
      1186         9  POPC      H10X            3.4908143348      -16.6720721993        8.8676866611  MEMB      9               0.0000000000
      1187         9  POPC      H10Y            2.1967321157      -17.9541557908        8.8946240237  MEMB      9               0.0000000000
      1188         9  POPC      C311            4.1689818283      -18.7095613929        8.2954063971  MEMB      9               0.0000000000
      1189         9  POPC      H11X            3.8163928884      -19.7291517291        8.5608068573  MEMB      9               0.0000000000
      1190         9  POPC      H11Y            5.2386957362      -18.6243908807        8.5831196941  MEMB      9               0.0000000000
      1191         9  POPC      C312            4.1343438557      -18.5463416175        6.7515353206  MEMB      9               0.0000000000
      1192         9  POPC      H12X            3.2024674778      -18.0119621066        6.4680472295  MEMB      9               0.0000000000
      1193         9  POPC      H12Y            4.1635317506      -19.5626598771        6.3036893385  MEMB      9               0.0000000000
      1194         9  POPC      C313            5.1988727106      -17.6037370010        6.1509562826  MEMB      9               0.0000000000
      1195         9  POPC      H13X            6.1756639824      -18.1320677697        6.1836136900  MEMB      9               0.0000000000
      1196         9  POPC      H13Y            5.3570705545      -16.6223747738        6.6471641198  MEMB      9               0.0000000000
      1197         9  POPC      C314            4.8897691689      -17.2955746693        4.6811469491  MEMB      9               0.0000000000
      1198         9  POPC      H14X            5.3155697398      -16.2751569387        4.5726912770  MEMB      9               0.0000000000
      1199         9  POPC      H14Y            3.7821042401      -17.2357617243        4.6193247387  MEMB      9               0.0000000000
      1200         9  POPC      C315            5.4845684641      -18.1895419421        3.6174458218  MEMB      9               0.0000000000
      1201         9  POPC      H15X            4.7572213702      -19.0173786373        3.4761173063  MEMB      9               0.0000000000
      1202         9  POPC      H15Y            6.4047935215      -18.6314330148        4.0558966479  MEMB      9               0.0000000000
      1203         9  POPC      C316            5.7256773719      -17.6040497205        2.2300571177  MEMB      9               0.0000000000
      1204         9  POPC      H16X            4.8561181932      -16.9695819822        1.9550318411  MEMB      9               0.0000000000
      1205         9  POPC      H16Y            5.8766308008      -18.3867766291        1.4561892445  MEMB      9               0.0000000000
      1206         9  POPC      H16Z            6.5707458552      -16.8828233144        2.2264703533  MEMB      9               0.0000000000
      1207        10  POPC      N              12.4226391263      -10.8072267005       20.1163604290  MEMB      10              0.0000000000
      1208        10  POPC      C12            12.2341556643      -11.1217560481       18.6055375654  MEMB      10              0.0000000000
      1209        10  POPC      H12A           11.8274919387      -12.1114300854       18.4586697298  MEMB      10              0.0000000000
      1210        10  POPC      H12B           13.1730587886      -11.0309967445       18.0795875102  MEMB      10              0.0000000000
      1211        10  POPC      C13            11.1532785152      -11.1294370105       20.8727973629  MEMB      10              0.0000000000
      1212        10  POPC      H13A           10.9513260200      -12.1824085629       21.0026664037  MEMB      10              0.0000000000
      1213        10  POPC      H13B           11.1768772206      -10.7418667951       21.8805832007  MEMB      10              0.0000000000
      1214        10  POPC      H13C           10.3262943146      -10.6593890493       20.3613756078  MEMB      10              0.0000000000
      1215        10  POPC      C14            13.5390261108      -11.7705514269       20.6101830033  MEMB      10              0.0000000000
      1216        10  POPC      H14A           13.7179469371      -11.7279296246       21.6744060354  MEMB      10              0.0000000000
      1217        10  POPC      H14B           13.3584713651      -12.7935576095       20.3147874452  MEMB      10              0.0000000000
      1218        10  POPC      H14C           14.4429016944      -11.4883900891       20.0907662357  MEMB      10              0.0000000000
      1219        10  POPC      C15            12.9144343891       -9.3643153527       20.2769362346  MEMB      10              0.0000000000
      1220        10  POPC      H15A           13.5288032708       -9.0886846991       19.4325556773  MEMB      10              0.0000000000
      1221        10  POPC      H15B           13.5601481487       -9.3730064296       21.1426025043  MEMB      10              0.0000000000
      1222        10  POPC      H15C           12.0875629495       -8.6881641465       20.4366329316  MEMB      10              0.0000000000
      1223        10  POPC      C11            11.2517486224      -10.1832859813       17.7713128242  MEMB      10              0.0000000000
      1224        10  POPC      H11A           11.1376659052      -10.4982432977       16.7120168861  MEMB      10              0.0000000000
      1225        10  POPC      H11B           11.7722230256       -9.2124968687       17.9162122482  MEMB      10              0.0000000000
      1226        10  POPC      P               8.9542194113       -8.9274322779       18.1987232877  MEMB      10              0.0000000000
      1227        10  POPC      O13             9.7524708247       -7.6987107455       18.4532360162  MEMB      10              0.0000000000
      1228        10  POPC      O14             7.8094360320       -9.0969652319       19.0670244793  MEMB      10              0.0000000000
      1229        10  POPC      O12             9.9631411994      -10.1667766791       18.3771006020  MEMB      10              0.0000000000
      1230        10  POPC      O11             8.4770011076       -8.9039926135       16.6507881944  MEMB      10              0.0000000000
      1231        10  POPC      C1              7.6702037759       -9.8517829127       16.0379899430  MEMB      10              0.0000000000
      1232        10  POPC      HA              6.5889512018       -9.6828905017       16.2295347385  MEMB      10              0.0000000000
      1233        10  POPC      HB              7.9586174738      -10.8727897261       16.3676622019  MEMB      10              0.0000000000
      1234        10  POPC      C2              7.9195822263       -9.7401300910       14.4942985155  MEMB      10              0.0000000000
      1235        10  POPC      HS              7.3669017209      -10.5999117627       14.0588209211  MEMB      10              0.0000000000
      1236        10  POPC      O21             9.2947957387       -9.9352006240       14.0921256379  MEMB      10              0.0000000000
      1237        10  POPC      C21             9.8032781648      -11.2341762503       14.0685257913  MEMB      10              0.0000000000
      1238        10  POPC      O22             9.0892317766      -12.1917614816       14.3095646831  MEMB      10              0.0000000000
      1239        10  POPC      C22            11.2996160857      -11.2260854184       13.8281007818  MEMB      10              0.0000000000
      1240        10  POPC      H2R            11.8946354247      -11.8720652036       14.5085293912  MEMB      10              0.0000000000
      1241        10  POPC      H2S            11.7715917058      -10.2203449003       13.8213167642  MEMB      10              0.0000000000
      1242        10  POPC      C3              7.3767540172       -8.3921172073       13.8380073965  MEMB      10              0.0000000000
      1243        10  POPC      HX              7.6462775683       -7.6420286399       14.6119872945  MEMB      10              0.0000000000
      1244        10  POPC      HY              6.2812888319       -8.4453819502       13.6606945524  MEMB      10              0.0000000000
      1245        10  POPC      O31             8.0771497261       -8.0035762703       12.6567858777  MEMB      10              0.0000000000
      1246        10  POPC      C31             7.7536875845       -8.7934967931       11.6187350875  MEMB      10              0.0000000000
      1247        10  POPC      O32             6.8877216973       -9.6783818131       11.6065880804  MEMB      10              0.0000000000
      1248        10  POPC      C32             8.5308571713       -8.3513237615       10.3792808677  MEMB      10              0.0000000000
      1249        10  POPC      H2X             9.5688364667       -8.7395331234       10.3004542313  MEMB      10              0.0000000000
      1250        10  POPC      H2Y             8.7430489276       -7.2612436921       10.3473322629  MEMB      10              0.0000000000
      1251        10  POPC      C23            11.7050948200      -11.7305807967       12.3823524824  MEMB      10              0.0000000000
      1252        10  POPC      H3R            12.7817758132      -11.4595499553       12.3420851902  MEMB      10              0.0000000000
      1253        10  POPC      H3S            11.3741842516      -11.0481952790       11.5704601515  MEMB      10              0.0000000000
      1254        10  POPC      C24            11.3132546916      -13.1792763331       12.1932257689  MEMB      10              0.0000000000
      1255        10  POPC      H4R            10.2085918333      -13.1241086180       12.0883569838  MEMB      10              0.0000000000
      1256        10  POPC      H4S            11.5367092322      -13.6998309739       13.1489515181  MEMB      10              0.0000000000
      1257        10  POPC      C25            11.8921209372      -13.8928680526       10.9115066552  MEMB      10              0.0000000000
      1258        10  POPC      H5R            11.6342837021      -14.9689511261       10.8120775769  MEMB      10              0.0000000000
      1259        10  POPC      H5S            12.9919558587      -13.7912342976       11.0313178177  MEMB      10              0.0000000000
      1260        10  POPC      C26            11.3522083091      -13.0664082345        9.7204720848  MEMB      10              0.0000000000
      1261        10  POPC      H6R            11.6512097569      -13.5297713820        8.7559956472  MEMB      10              0.0000000000
      1262        10  POPC      H6S            11.9028672289      -12.1015502461        9.7084378533  MEMB      10              0.0000000000
      1263        10  POPC      C27             9.8316210724      -13.0123330685        9.4285155920  MEMB      10              0.0000000000
      1264        10  POPC      H7R             9.4785416390      -12.3176537252       10.2203972928  MEMB      10              0.0000000000
      1265        10  POPC      H7S             9.3012179642      -13.9635859559        9.6478589323  MEMB      10              0.0000000000
      1266        10  POPC      C28             9.5021577581      -12.4693332030        8.0300087998  MEMB      10              0.0000000000
      1267        10  POPC      H8R            10.1398911222      -11.6204467285        7.7028867456  MEMB      10              0.0000000000
      1268        10  POPC      H8S             8.4678996012      -12.0845628629        8.1587831547  MEMB      10              0.0000000000
      1269        10  POPC      C29             9.5262609963      -13.5140655820        6.9634673051  MEMB      10              0.0000000000
      1270        10  POPC      H91             9.2541673525      -14.4627008491        7.4493233283  MEMB      10              0.0000000000
      1271        10  POPC      C210            9.8201448584      -13.3901245383        5.6742375894  MEMB      10              0.0000000000
      1272        10  POPC      H101            9.8211023315      -14.3191662514        5.0852725715  MEMB      10              0.0000000000
      1273        10  POPC      C211           10.2895597098      -12.0804866933        5.0395489560  MEMB      10              0.0000000000
      1274        10  POPC      H11R            9.5553658534      -11.2482704538        5.0914783384  MEMB      10              0.0000000000
      1275        10  POPC      H11S           10.4145585815      -12.5113687171        4.0231648570  MEMB      10              0.0000000000
      1276        10  POPC      C212           11.6914187273      -11.5746276961        5.4415403847  MEMB      10              0.0000000000
      1277        10  POPC      H12R           12.3539236532      -12.3916280228        5.0838837799  MEMB      10              0.0000000000
      1278        10  POPC      H12S           11.7968867581      -11.4950317707        6.5446550054  MEMB      10              0.0000000000
      1279        10  POPC      C213           12.1439152722      -10.2342801939        4.8466037794  MEMB      10              0.0000000000
      1280        10  POPC      H13R           11.8422213634      -10.4109334147        3.7920452665  MEMB      10              0.0000000000
      1281        10  POPC      H13S           13.2314133711      -10.0372337859        4.9599258698  MEMB      10              0.0000000000
      1282        10  POPC      C214           11.4116287451       -8.9872792017        5.4713272672  MEMB      10              0.0000000000
      1283        10  POPC      H14R           11.8306066706       -8.8892424583        6.4956157451  MEMB      10              0.0000000000
      1284        10  POPC      H14S           10.3194068281       -9.1796446734        5.5374150083  MEMB      10              0.0000000000
      1285        10  POPC      C215           11.7430376928       -7.7239270060        4.6544202825  MEMB      10              0.0000000000
      1286        10  POPC      H15R           12.8306439597       -7.4980407731        4.6341952335  MEMB      10              0.0000000000
      1287        10  POPC      H15S           11.1573483208       -6.9279064809        5.1620026256  MEMB      10              0.0000000000
      1288        10  POPC      C216           11.1925754463       -7.5794802972        3.2289845900  MEMB      10              0.0000000000
      1289        10  POPC      H16R           11.5696832374       -8.3777581044        2.5545488039  MEMB      10              0.0000000000
      1290        10  POPC      H16S           11.4304666283       -6.5896457960        2.7840605379  MEMB      10              0.0000000000
      1291        10  POPC      C217            9.6944769322       -7.7899536742        3.2575730955  MEMB      10              0.0000000000
      1292        10  POPC      H17R            9.1865008210       -7.2011019305        4.0510056119  MEMB      10              0.0000000000
      1293        10  POPC      H17S            9.5483909509       -8.8881053497        3.3414915413  MEMB      10              0.0000000000
      1294        10  POPC      C218            8.8900054279       -7.3173908790        1.9973885037  MEMB      10              0.0000000000
      1295        10  POPC      H18R            7.8028895955       -7.5441532116        2.0302378831  MEMB      10              0.0000000000
      1296        10  POPC      H18S            9.4237842033       -7.7650688381        1.1319491751  MEMB      10              0.0000000000
      1297        10  POPC      H18T            9.0038227080       -6.2235371856        1.8397457995  MEMB      10              0.0000000000
      1298        10  POPC      C33             7.6125998633       -8.6168215776        9.1530914288  MEMB      10              0.0000000000
      1299        10  POPC      H3X             6.6200771343       -8.1959919367        9.4216472304  MEMB      10              0.0000000000
      1300        10  POPC      H3Y             7.5903888244       -9.7065323654        8.9377825481  MEMB      10              0.0000000000
      1301        10  POPC      C34             8.1221377431       -8.0106276106        7.8093889774  MEMB      10              0.0000000000
      1302        10  POPC      H4X             8.8091589660       -8.6814005758        7.2504739764  MEMB      10              0.0000000000
      1303        10  POPC      H4Y             8.7939882912       -7.1887699709        8.1372436797  MEMB      10              0.0000000000
      1304        10  POPC      C35             7.0535326324       -7.4954541591        6.8734970480  MEMB      10              0.0000000000
      1305        10  POPC      H5X             7.3336922462       -6.8558794414        6.0093350278  MEMB      10              0.0000000000
      1306        10  POPC      H5Y             6.3054950145       -6.9686998513        7.5038066143  MEMB      10              0.0000000000
      1307        10  POPC      C36             6.1608302808       -8.6785163599        6.3252234625  MEMB      10              0.0000000000
      1308        10  POPC      H6X             5.1699627691       -8.2680008367        6.0354315408  MEMB      10              0.0000000000
      1309        10  POPC      H6Y             6.1156929303       -9.3972244463        7.1712389064  MEMB      10              0.0000000000
      1310        10  POPC      C37             6.7110047571       -9.3093776496        5.0303099432  MEMB      10              0.0000000000
      1311        10  POPC      H7X             7.8151235923       -9.1884292801        5.0550856724  MEMB      10              0.0000000000
      1312        10  POPC      H7Y             6.3145531026       -8.6698242330        4.2129250130  MEMB      10              0.0000000000
      1313        10  POPC      C38             6.1943377475      -10.6266317995        4.6188172376  MEMB      10              0.0000000000
      1314        10  POPC      H8X             5.1071290232      -10.6615425159        4.8448250569  MEMB      10              0.0000000000
      1315        10  POPC      H8Y             6.7140315380      -11.4836980379        5.0980635494  MEMB      10              0.0000000000
      1316        10  POPC      C39             6.4025966147      -10.8797104858        3.1385533112  MEMB      10              0.0000000000
      1317        10  POPC      H9X             6.1242512243       -9.9694507422        2.5656021871  MEMB      10              0.0000000000
      1318        10  POPC      H9Y             5.7202107850      -11.7216374951        2.8939512765  MEMB      10              0.0000000000
      1319        10  POPC      C310            7.8027315768      -11.2746734396        2.6296611670  MEMB      10              0.0000000000
      1320        10  POPC      H10X            7.8803344974      -12.3747508354        2.7643037708  MEMB      10              0.0000000000
      1321        10  POPC      H10Y            8.5393868959      -10.8687928861        3.3555543725  MEMB      10              0.0000000000
      1322        10  POPC      C311            8.1243164587      -10.9369820234        1.1174271595  MEMB      10              0.0000000000
      1323        10  POPC      H11X            8.0680899271       -9.8520919899        0.8846759921  MEMB      10              0.0000000000
      1324        10  POPC      H11Y            7.4671234344      -11.6266366044        0.5457672948  MEMB      10              0.0000000000
      1325        10  POPC      C312            9.5760784855      -11.3390760609        0.8993997743  MEMB      10              0.0000000000
      1326        10  POPC      H12X            9.5180875060      -12.4447982386        0.8080938630  MEMB      10              0.0000000000
      1327        10  POPC      H12Y           10.1870589576      -11.0345816894        1.7759315649  MEMB      10              0.0000000000
      1328        10  POPC      C313           10.2039716429      -10.9205409237       -0.4191948569  MEMB      10              0.0000000000
      1329        10  POPC      H13X           10.0685211314       -9.8214869647       -0.5089411998  MEMB      10              0.0000000000
      1330        10  POPC      H13Y            9.6453943829      -11.3568242053       -1.2747480026  MEMB      10              0.0000000000
      1331        10  POPC      C314           11.7559188100      -11.2907749355       -0.4600783627  MEMB      10              0.0000000000
      1332        10  POPC      H14X           11.9199342535      -12.2652158157        0.0477459211  MEMB      10              0.0000000000
      1333        10  POPC      H14Y           12.2908994080      -10.4635089286        0.0534838850  MEMB      10              0.0000000000
      1334        10  POPC      C315           12.3325458112      -11.3006134340       -1.8768703295  MEMB      10              0.0000000000
      1335        10  POPC      H15X           11.9118784546      -12.2212717160       -2.3348532096  MEMB      10              0.0000000000
      1336        10  POPC      H15Y           13.4278382272      -11.2303535160       -1.7044763566  MEMB      10              0.0000000000
      1337        10  POPC      C316           12.0819684321      -10.0645014527       -2.6302350963  MEMB      10              0.0000000000
      1338        10  POPC      H16X           12.5488645505       -9.1480522756       -2.2101757108  MEMB      10              0.0000000000
      1339        10  POPC      H16Y           11.0001685797       -9.9385177768       -2.8496852362  MEMB      10              0.0000000000
      1340        10  POPC      H16Z           12.4667733912      -10.1385750542       -3.6698301151  MEMB      10              0.0000000000
      1341        11  POPC      N             -10.6589335154       10.0562235994       19.7122933824  MEMB      11              0.0000000000
      1342        11  POPC      C12            -9.8287946679        8.9886607377       19.0280736786  MEMB      11              0.0000000000
      1343        11  POPC      H12A           -8.7977217018        9.1236315022       19.3197438310  MEMB      11              0.0000000000
      1344        11  POPC      H12B           -9.9014506752        9.1487697689       17.9624817355  MEMB      11              0.0000000000
      1345        11  POPC      C13            -9.8822928321       11.3996969545       19.6592966317  MEMB      11              0.0000000000
      1346        11  POPC      H13A          -10.2545429707       12.0220919949       20.4595802765  MEMB      11              0.0000000000
      1347        11  POPC      H13B           -8.8598900113       11.1886992502       19.9360139005  MEMB      11              0.0000000000
      1348        11  POPC      H13C          -10.0964124542       11.9426636874       18.7505945299  MEMB      11              0.0000000000
      1349        11  POPC      C14           -12.0010416856       10.2648490781       19.0091283053  MEMB      11              0.0000000000
      1350        11  POPC      H14A          -12.5171637771        9.3974139441       18.6249743981  MEMB      11              0.0000000000
      1351        11  POPC      H14B          -12.7699875169       10.7485418658       19.5932205261  MEMB      11              0.0000000000
      1352        11  POPC      H14C          -11.8141801440       10.9655142514       18.2087839051  MEMB      11              0.0000000000
      1353        11  POPC      C15           -10.7639042094        9.7299750923       21.1481435498  MEMB      11              0.0000000000
      1354        11  POPC      H15A           -9.7914024454        9.9340651519       21.5712128270  MEMB      11              0.0000000000
      1355        11  POPC      H15B          -11.2516719642        8.7789430415       21.3031292303  MEMB      11              0.0000000000
      1356        11  POPC      H15C          -11.4438902382       10.3722070416       21.6881038325  MEMB      11              0.0000000000
      1357        11  POPC      C11           -10.2875873181        7.5152284759       19.2547887962  MEMB      11              0.0000000000
      1358        11  POPC      H11A          -10.3873924665        7.2478061786       20.3284950681  MEMB      11              0.0000000000
      1359        11  POPC      H11B           -9.3955238421        6.9589763909       18.8954460894  MEMB      11              0.0000000000
      1360        11  POPC      P             -11.8795024430        5.8373032743       18.1987506720  MEMB      11              0.0000000000
      1361        11  POPC      O13           -11.3716389426        4.8685403019       19.1552622266  MEMB      11              0.0000000000
      1362        11  POPC      O14           -11.6113803764        5.6772825329       16.7165231251  MEMB      11              0.0000000000
      1363        11  POPC      O12           -11.4808304917        7.2869652887       18.5740400301  MEMB      11              0.0000000000
      1364        11  POPC      O11           -13.4200124566        5.9619661496       18.5436996082  MEMB      11              0.0000000000
      1365        11  POPC      C1            -14.1629080809        7.1392860221       18.1154659068  MEMB      11              0.0000000000
      1366        11  POPC      HA            -13.6816512530        7.6668270180       17.2643411877  MEMB      11              0.0000000000
      1367        11  POPC      HB            -14.1981888808        7.8909234785       18.9328504171  MEMB      11              0.0000000000
      1368        11  POPC      C2            -15.5630398760        6.6877884368       17.6371204063  MEMB      11              0.0000000000
      1369        11  POPC      HS            -15.9453289911        6.0561683657       18.4673204091  MEMB      11              0.0000000000
      1370        11  POPC      O21           -15.4921267751        5.8864975915       16.4600854591  MEMB      11              0.0000000000
      1371        11  POPC      C21           -15.4874770556        4.5595214286       16.5420933278  MEMB      11              0.0000000000
      1372        11  POPC      O22           -15.4615656568        3.9204582394       17.5693775654  MEMB      11              0.0000000000
      1373        11  POPC      C22           -15.4387115928        3.9918098536       15.2174082834  MEMB      11              0.0000000000
      1374        11  POPC      H2R           -16.3611891130        4.2560783651       14.6574812277  MEMB      11              0.0000000000
      1375        11  POPC      H2S           -15.3466722264        2.8898951228       15.3252665924  MEMB      11              0.0000000000
      1376        11  POPC      C3            -16.6003860721        7.8429330304       17.3167567726  MEMB      11              0.0000000000
      1377        11  POPC      HX            -16.9670671656        8.3524784745       18.2333969154  MEMB      11              0.0000000000
      1378        11  POPC      HY            -17.4136823212        7.2878333556       16.8022332259  MEMB      11              0.0000000000
      1379        11  POPC      O31           -15.8812703221        8.8668775104       16.5732837307  MEMB      11              0.0000000000
      1380        11  POPC      C31           -15.8564568087        8.7791150970       15.2802815777  MEMB      11              0.0000000000
      1381        11  POPC      O32           -16.6414929107        8.2505092558       14.5366041018  MEMB      11              0.0000000000
      1382        11  POPC      C32           -14.6483319442        9.6284061113       14.7784924936  MEMB      11              0.0000000000
      1383        11  POPC      H2X           -13.7505580694        9.0914233457       15.1526222346  MEMB      11              0.0000000000
      1384        11  POPC      H2Y           -14.7936006105       10.6179724315       15.2622037998  MEMB      11              0.0000000000
      1385        11  POPC      C23           -14.3227721336        4.6324749496       14.4247951539  MEMB      11              0.0000000000
      1386        11  POPC      H3R           -13.3652596162        4.5133536502       14.9755225472  MEMB      11              0.0000000000
      1387        11  POPC      H3S           -14.4303721624        5.7248840946       14.2533726128  MEMB      11              0.0000000000
      1388        11  POPC      C24           -13.9461639478        3.9281766435       13.0470550931  MEMB      11              0.0000000000
      1389        11  POPC      H4R           -14.8222214110        3.6048322399       12.4451477893  MEMB      11              0.0000000000
      1390        11  POPC      H4S           -13.4415791248        2.9433965142       13.1466680393  MEMB      11              0.0000000000
      1391        11  POPC      C25           -13.1876201471        4.8081985442       12.1320269729  MEMB      11              0.0000000000
      1392        11  POPC      H5R           -13.8339353381        5.7096408164       12.0687852889  MEMB      11              0.0000000000
      1393        11  POPC      H5S           -13.2098698200        4.3001002091       11.1442707541  MEMB      11              0.0000000000
      1394        11  POPC      C26           -11.7129406028        5.0631367598       12.4903478058  MEMB      11              0.0000000000
      1395        11  POPC      H6R           -11.1484172640        4.1062612911       12.4854797269  MEMB      11              0.0000000000
      1396        11  POPC      H6S           -11.6635450153        5.5017485787       13.5099067188  MEMB      11              0.0000000000
      1397        11  POPC      C27           -11.0298713900        6.0798123466       11.5042686202  MEMB      11              0.0000000000
      1398        11  POPC      H7R            -9.9873583259        6.2918144376       11.8244910900  MEMB      11              0.0000000000
      1399        11  POPC      H7S           -11.5565343962        7.0413268823       11.6843708867  MEMB      11              0.0000000000
      1400        11  POPC      C28           -11.0215818136        5.7184238507       10.0634029373  MEMB      11              0.0000000000
      1401        11  POPC      H8R           -10.4474363076        6.5678907265        9.6355199717  MEMB      11              0.0000000000
      1402        11  POPC      H8S           -12.0792895779        5.8087824731        9.7356669360  MEMB      11              0.0000000000
      1403        11  POPC      C29           -10.3413085963        4.3715482444        9.7063185880  MEMB      11              0.0000000000
      1404        11  POPC      H91            -9.3103776144        4.4196144373       10.0869369889  MEMB      11              0.0000000000
      1405        11  POPC      C210          -10.8294147273        3.2805049331        9.0513908865  MEMB      11              0.0000000000
      1406        11  POPC      H101          -10.1707744144        2.4039326336        8.9629919748  MEMB      11              0.0000000000
      1407        11  POPC      C211          -12.2316293559        3.0646799144        8.5111364227  MEMB      11              0.0000000000
      1408        11  POPC      H11R          -12.9713587675        2.8515813378        9.3122053054  MEMB      11              0.0000000000
      1409        11  POPC      H11S          -12.1942018630        2.1294594207        7.9125699759  MEMB      11              0.0000000000
      1410        11  POPC      C212          -12.7100825684        4.0942290552        7.4584435460  MEMB      11              0.0000000000
      1411        11  POPC      H12R          -11.9667987813        4.2454224543        6.6466617502  MEMB      11              0.0000000000
      1412        11  POPC      H12S          -13.0473547796        5.0386272846        7.9366491905  MEMB      11              0.0000000000
      1413        11  POPC      C213          -14.0107474856        3.4906712103        6.7821812112  MEMB      11              0.0000000000
      1414        11  POPC      H13R          -14.8837613943        3.5052579301        7.4691710640  MEMB      11              0.0000000000
      1415        11  POPC      H13S          -13.7642457699        2.4323365837        6.5509125662  MEMB      11              0.0000000000
      1416        11  POPC      C214          -14.4530511052        4.3549735898        5.6585848199  MEMB      11              0.0000000000
      1417        11  POPC      H14R          -13.6091748568        4.6898347209        5.0182238972  MEMB      11              0.0000000000
      1418        11  POPC      H14S          -14.9324032371        5.2714655302        6.0642760334  MEMB      11              0.0000000000
      1419        11  POPC      C215          -15.3399560423        3.7146055471        4.6543317755  MEMB      11              0.0000000000
      1420        11  POPC      H15R          -16.2291375840        3.2219475460        5.1026235522  MEMB      11              0.0000000000
      1421        11  POPC      H15S          -14.7678775057        2.8939389559        4.1710578453  MEMB      11              0.0000000000
      1422        11  POPC      C216          -15.6798058816        4.5382205108        3.4225917498  MEMB      11              0.0000000000
      1423        11  POPC      H16R          -16.4271974452        3.8680335153        2.9465924236  MEMB      11              0.0000000000
      1424        11  POPC      H16S          -14.7917407902        4.6319925852        2.7616312141  MEMB      11              0.0000000000
      1425        11  POPC      C217          -16.1466665267        5.9898503775        3.6843466342  MEMB      11              0.0000000000
      1426        11  POPC      H17R          -15.4412971429        6.4644471909        4.3995615755  MEMB      11              0.0000000000
      1427        11  POPC      H17S          -17.1020512383        5.8202876160        4.2254649785  MEMB      11              0.0000000000
      1428        11  POPC      C218          -16.3980536746        6.8700464131        2.4435273422  MEMB      11              0.0000000000
      1429        11  POPC      H18R          -16.5142668747        7.9564282164        2.6449979791  MEMB      11              0.0000000000
      1430        11  POPC      H18S          -17.3724126862        6.5492369906        2.0168829452  MEMB      11              0.0000000000
      1431        11  POPC      H18T          -15.5306244647        6.6554024441        1.7833645946  MEMB      11              0.0000000000
      1432        11  POPC      C33           -14.6126394360        9.7838723922       13.3092219290  MEMB      11              0.0000000000
      1433        11  POPC      H3X           -13.9960344331       10.6953859661       13.1567023580  MEMB      11              0.0000000000
      1434        11  POPC      H3Y           -15.6293399655        9.9054183617       12.8780982104  MEMB      11              0.0000000000
      1435        11  POPC      C34           -13.9075425815        8.5593480129       12.5951855506  MEMB      11              0.0000000000
      1436        11  POPC      H4X           -14.4491579160        7.6283381365       12.8675718853  MEMB      11              0.0000000000
      1437        11  POPC      H4Y           -12.8596129565        8.4543474595       12.9489356379  MEMB      11              0.0000000000
      1438        11  POPC      C35           -13.9726611489        8.6523326752       11.0474676319  MEMB      11              0.0000000000
      1439        11  POPC      H5X           -14.9340186022        9.0744224890       10.6842140340  MEMB      11              0.0000000000
      1440        11  POPC      H5Y           -14.0363577511        7.6052055725       10.6816963331  MEMB      11              0.0000000000
      1441        11  POPC      C36           -12.8840429402        9.3758648299       10.3637794569  MEMB      11              0.0000000000
      1442        11  POPC      H6X           -12.2733640440        8.5875370656        9.8739509575  MEMB      11              0.0000000000
      1443        11  POPC      H6Y           -12.2647323181        9.8229701755       11.1705458826  MEMB      11              0.0000000000
      1444        11  POPC      C37           -13.2586783587       10.5239342053        9.4445086209  MEMB      11              0.0000000000
      1445        11  POPC      H7X           -12.3088139291       11.0459614729        9.2004465757  MEMB      11              0.0000000000
      1446        11  POPC      H7Y           -13.8888500507       11.1596151199       10.1026226343  MEMB      11              0.0000000000
      1447        11  POPC      C38           -13.7948235323       10.2472772979        8.0172283131  MEMB      11              0.0000000000
      1448        11  POPC      H8X           -14.0993504748       11.2415986722        7.6261921090  MEMB      11              0.0000000000
      1449        11  POPC      H8Y           -14.6428924560        9.5766735560        8.2729444266  MEMB      11              0.0000000000
      1450        11  POPC      C39           -12.7161699300        9.5222371796        7.0635602626  MEMB      11              0.0000000000
      1451        11  POPC      H9X           -13.1072749398        9.2612353393        6.0569641393  MEMB      11              0.0000000000
      1452        11  POPC      H9Y           -12.2876465505        8.6644847077        7.6247638083  MEMB      11              0.0000000000
      1453        11  POPC      C310          -11.4724006256       10.3188168649        6.6832233236  MEMB      11              0.0000000000
      1454        11  POPC      H10X          -11.1122026674       10.6008104861        7.6956744053  MEMB      11              0.0000000000
      1455        11  POPC      H10Y          -11.6425201873       11.3181942088        6.2286629564  MEMB      11              0.0000000000
      1456        11  POPC      C311          -10.3862904198        9.5057590562        5.8375317456  MEMB      11              0.0000000000
      1457        11  POPC      H11X          -10.4774665349        8.4058556102        5.9648912272  MEMB      11              0.0000000000
      1458        11  POPC      H11Y           -9.4392822449        9.7981655086        6.3395234289  MEMB      11              0.0000000000
      1459        11  POPC      C312          -10.2693273589        9.8881331446        4.3323956229  MEMB      11              0.0000000000
      1460        11  POPC      H12X           -9.5695021257        9.2226312097        3.7831481105  MEMB      11              0.0000000000
      1461        11  POPC      H12Y           -9.9292848802       10.9319802011        4.5029107982  MEMB      11              0.0000000000
      1462        11  POPC      C313          -11.5973949160        9.8665640891        3.5250542993  MEMB      11              0.0000000000
      1463        11  POPC      H13X          -12.5142045800       10.2408506261        4.0287313341  MEMB      11              0.0000000000
      1464        11  POPC      H13Y          -11.7831530346        8.8349798321        3.1567492100  MEMB      11              0.0000000000
      1465        11  POPC      C314          -11.4759479638       10.7546904836        2.2561809309  MEMB      11              0.0000000000
      1466        11  POPC      H14X          -10.7344182318       10.2214557792        1.6236344515  MEMB      11              0.0000000000
      1467        11  POPC      H14Y          -11.0862743665       11.7697225407        2.4846225189  MEMB      11              0.0000000000
      1468        11  POPC      C315          -12.7795700357       10.9224071397        1.5281103890  MEMB      11              0.0000000000
      1469        11  POPC      H15X          -12.6374435379       11.5808652488        0.6446213565  MEMB      11              0.0000000000
      1470        11  POPC      H15Y          -13.4225377729       11.5436833972        2.1876028180  MEMB      11              0.0000000000
      1471        11  POPC      C316          -13.6008220133        9.7146164475        1.0851492391  MEMB      11              0.0000000000
      1472        11  POPC      H16X          -14.3269400050       10.0306690506        0.3059290327  MEMB      11              0.0000000000
      1473        11  POPC      H16Y          -14.1746333921        9.3057162222        1.9441371766  MEMB      11              0.0000000000
      1474        11  POPC      H16Z          -12.9498640992        8.9567517279        0.5991281678  MEMB      11              0.0000000000
      1475        12  POPC      N              -1.9358113599       20.7622896669       18.0403722676  MEMB      12              0.0000000000
      1476        12  POPC      C12            -2.5348603377       21.8972258683       18.8519303640  MEMB      12              0.0000000000
      1477        12  POPC      H12A           -3.5031786749       21.5541533876       19.1851879430  MEMB      12              0.0000000000
      1478        12  POPC      H12B           -2.7916073756       22.6151512691       18.0870355906  MEMB      12              0.0000000000
      1479        12  POPC      C13            -1.3948728511       19.6229307981       18.9298199422  MEMB      12              0.0000000000
      1480        12  POPC      H13A           -2.1718067536       19.1434228624       19.5067476009  MEMB      12              0.0000000000
      1481        12  POPC      H13B           -0.9205566585       18.8762004009       18.3102899426  MEMB      12              0.0000000000
      1482        12  POPC      H13C           -0.6609822562       20.1460279918       19.5249451336  MEMB      12              0.0000000000
      1483        12  POPC      C14            -2.9297972578       20.0991272861       17.0557824192  MEMB      12              0.0000000000
      1484        12  POPC      H14A           -2.9384035492       20.6373447879       16.1194877805  MEMB      12              0.0000000000
      1485        12  POPC      H14B           -2.4382842810       19.1762434050       16.7854116435  MEMB      12              0.0000000000
      1486        12  POPC      H14C           -3.9076942705       20.0042947456       17.5042515291  MEMB      12              0.0000000000
      1487        12  POPC      C15            -0.8262814663       21.3026721201       17.1787097653  MEMB      12              0.0000000000
      1488        12  POPC      H15A           -1.1253760143       22.1599870932       16.5939420346  MEMB      12              0.0000000000
      1489        12  POPC      H15B           -0.5009003425       20.5164549312       16.5135859129  MEMB      12              0.0000000000
      1490        12  POPC      H15C            0.0067280312       21.4291958026       17.8543480465  MEMB      12              0.0000000000
      1491        12  POPC      C11            -1.7412059533       22.4165995681       20.0598805001  MEMB      12              0.0000000000
      1492        12  POPC      H11A           -1.6823852316       21.7637414850       20.9568964173  MEMB      12              0.0000000000
      1493        12  POPC      H11B           -2.3492088876       23.2906710273       20.3771382663  MEMB      12              0.0000000000
      1494        12  POPC      P               0.1037608877       24.3790197884       19.8290336262  MEMB      12              0.0000000000
      1495        12  POPC      O13             1.5807295607       24.4613258614       19.5873640470  MEMB      12              0.0000000000
      1496        12  POPC      O14            -0.4606618983       24.9289044378       21.0947000616  MEMB      12              0.0000000000
      1497        12  POPC      O12            -0.4040932956       22.8738127098       19.6771936450  MEMB      12              0.0000000000
      1498        12  POPC      O11            -0.5187206628       25.0630733234       18.6952133737  MEMB      12              0.0000000000
      1499        12  POPC      C1             -0.8805558511       26.4413849884       18.5301455579  MEMB      12              0.0000000000
      1500        12  POPC      HA              0.0077667414       26.9662088929       18.1181217145  MEMB      12              0.0000000000
      1501        12  POPC      HB             -1.0113313978       26.9538496952       19.5071811731  MEMB      12              0.0000000000
      1502        12  POPC      C2             -2.1040076131       26.6033968708       17.5937413180  MEMB      12              0.0000000000
      1503        12  POPC      HS             -2.5870357326       27.5958366993       17.7205005577  MEMB      12              0.0000000000
      1504        12  POPC      O21            -3.0116305516       25.5775455336       17.9988907293  MEMB      12              0.0000000000
      1505        12  POPC      C21            -4.2461326080       25.6480718749       17.5065696687  MEMB      12              0.0000000000
      1506        12  POPC      O22            -4.6470187174       26.4803764391       16.6963679822  MEMB      12              0.0000000000
      1507        12  POPC      C22            -5.1095095852       24.4522663516       18.0322012532  MEMB      12              0.0000000000
      1508        12  POPC      H2R            -5.3447534416       24.7426839917       19.0784511587  MEMB      12              0.0000000000
      1509        12  POPC      H2S            -4.5760217553       23.4813090105       17.9488140738  MEMB      12              0.0000000000
      1510        12  POPC      C3             -1.6568605672       26.5064793226       16.0887581853  MEMB      12              0.0000000000
      1511        12  POPC      HX             -0.6374415248       26.9318515389       15.9697445842  MEMB      12              0.0000000000
      1512        12  POPC      HY             -2.3086010956       27.0578150326       15.3777140926  MEMB      12              0.0000000000
      1513        12  POPC      O31            -1.7330617270       25.1430351688       15.7251319134  MEMB      12              0.0000000000
      1514        12  POPC      C31            -1.6433051600       24.7816865323       14.4699239506  MEMB      12              0.0000000000
      1515        12  POPC      O32            -1.2356061828       25.6275903106       13.5850743854  MEMB      12              0.0000000000
      1516        12  POPC      C32            -1.8886160221       23.2384575989       14.2698851664  MEMB      12              0.0000000000
      1517        12  POPC      H2X            -2.9672681568       23.1300829020       14.5129602617  MEMB      12              0.0000000000
      1518        12  POPC      H2Y            -1.3713356056       22.7216838306       15.1063582501  MEMB      12              0.0000000000
      1519        12  POPC      C23            -6.3762919726       24.4044406138       17.2048614483  MEMB      12              0.0000000000
      1520        12  POPC      H3R            -6.8490607773       25.3896313762       17.0043381177  MEMB      12              0.0000000000
      1521        12  POPC      H3S            -7.0927964102       23.7079174609       17.6904519751  MEMB      12              0.0000000000
      1522        12  POPC      C24            -6.1303943554       23.6954490162       15.8157772698  MEMB      12              0.0000000000
      1523        12  POPC      H4R            -7.0078768827       23.0630622844       15.5619435239  MEMB      12              0.0000000000
      1524        12  POPC      H4S            -5.2261440987       23.0499623290       15.8156495303  MEMB      12              0.0000000000
      1525        12  POPC      C25            -6.0104913629       24.7337754400       14.5972059276  MEMB      12              0.0000000000
      1526        12  POPC      H5R            -4.9763723766       25.1397878376       14.6057191899  MEMB      12              0.0000000000
      1527        12  POPC      H5S            -6.6830450054       25.5823544836       14.8460165049  MEMB      12              0.0000000000
      1528        12  POPC      C26            -6.3349153747       24.2229938426       13.2038205907  MEMB      12              0.0000000000
      1529        12  POPC      H6R            -7.4027961388       23.9295741965       13.1151847014  MEMB      12              0.0000000000
      1530        12  POPC      H6S            -5.7800122543       23.3166398357       12.8798977479  MEMB      12              0.0000000000
      1531        12  POPC      C27            -5.7855448974       25.2531805331       12.1201561946  MEMB      12              0.0000000000
      1532        12  POPC      H7R            -4.7361769049       25.5738715664       12.2942397471  MEMB      12              0.0000000000
      1533        12  POPC      H7S            -6.4883653715       26.1014811212       12.2642052613  MEMB      12              0.0000000000
      1534        12  POPC      C28            -6.2749528515       24.7086619688       10.7077028611  MEMB      12              0.0000000000
      1535        12  POPC      H8R            -6.2626165055       25.5876427185       10.0283195191  MEMB      12              0.0000000000
      1536        12  POPC      H8S            -7.3349181527       24.4182031735       10.8702705799  MEMB      12              0.0000000000
      1537        12  POPC      C29            -5.4343902735       23.5627938761       10.2225996575  MEMB      12              0.0000000000
      1538        12  POPC      H91            -5.0056611520       22.9193437310       11.0050078792  MEMB      12              0.0000000000
      1539        12  POPC      C210           -5.0061513724       23.3114417164        8.9608030046  MEMB      12              0.0000000000
      1540        12  POPC      H101           -4.3657549442       22.4274194620        8.8251673669  MEMB      12              0.0000000000
      1541        12  POPC      C211           -5.2237110152       24.0676362929        7.7044157608  MEMB      12              0.0000000000
      1542        12  POPC      H11R           -4.2966612865       24.3171848189        7.1452872031  MEMB      12              0.0000000000
      1543        12  POPC      H11S           -5.7017517857       25.0345069449        7.9707978394  MEMB      12              0.0000000000
      1544        12  POPC      C212           -6.1435246076       23.3466615429        6.6863964704  MEMB      12              0.0000000000
      1545        12  POPC      H12R           -7.0443152986       22.9032078993        7.1620498902  MEMB      12              0.0000000000
      1546        12  POPC      H12S           -5.5451962138       22.5212743867        6.2447401708  MEMB      12              0.0000000000
      1547        12  POPC      C213           -6.7289677898       24.3208387075        5.6795617659  MEMB      12              0.0000000000
      1548        12  POPC      H13R           -7.4739376024       24.9722767044        6.1845067836  MEMB      12              0.0000000000
      1549        12  POPC      H13S           -7.2869884465       23.8818493275        4.8250312726  MEMB      12              0.0000000000
      1550        12  POPC      C214           -5.6384493658       25.2043342798        4.9459442988  MEMB      12              0.0000000000
      1551        12  POPC      H14R           -5.0776362559       25.8012279519        5.6966290028  MEMB      12              0.0000000000
      1552        12  POPC      H14S           -6.2080324431       25.8753036274        4.2679349920  MEMB      12              0.0000000000
      1553        12  POPC      C215           -4.4695297071       24.5103575597        4.2709832556  MEMB      12              0.0000000000
      1554        12  POPC      H15R           -4.0493751275       23.7431602168        4.9559639533  MEMB      12              0.0000000000
      1555        12  POPC      H15S           -3.5535020089       25.1346286135        4.1968213121  MEMB      12              0.0000000000
      1556        12  POPC      C216           -4.8979238580       23.7794927698        2.9880509334  MEMB      12              0.0000000000
      1557        12  POPC      H16R           -5.2550620091       24.5409170473        2.2620984742  MEMB      12              0.0000000000
      1558        12  POPC      H16S           -5.6950738986       23.0665352570        3.2889889119  MEMB      12              0.0000000000
      1559        12  POPC      C217           -3.7770837806       22.9802785084        2.2887997775  MEMB      12              0.0000000000
      1560        12  POPC      H17R           -3.5239959484       22.0860975965        2.8976582102  MEMB      12              0.0000000000
      1561        12  POPC      H17S           -2.8838662748       23.6365515319        2.2127125703  MEMB      12              0.0000000000
      1562        12  POPC      C218           -4.1965782616       22.4176930210        0.9376087364  MEMB      12              0.0000000000
      1563        12  POPC      H18R           -3.4523100731       21.6990645433        0.5326902650  MEMB      12              0.0000000000
      1564        12  POPC      H18S           -4.2251112173       23.2942534072        0.2555905758  MEMB      12              0.0000000000
      1565        12  POPC      H18T           -5.1562833276       21.9155684787        1.1849110658  MEMB      12              0.0000000000
      1566        12  POPC      C33            -1.3927714288       22.7753573761       12.9083909824  MEMB      12              0.0000000000
      1567        12  POPC      H3X            -1.8998541593       23.4275721756       12.1655556736  MEMB      12              0.0000000000
      1568        12  POPC      H3Y            -1.6817019423       21.7254907713       12.6878906287  MEMB      12              0.0000000000
      1569        12  POPC      C34             0.0793435427       22.8641180383       12.7181200406  MEMB      12              0.0000000000
      1570        12  POPC      H4X             0.6165070877       22.3111195206       13.5181009579  MEMB      12              0.0000000000
      1571        12  POPC      H4Y             0.4249674166       23.9189255865       12.7655139452  MEMB      12              0.0000000000
      1572        12  POPC      C35             0.4227436801       22.3912264866       11.2369966047  MEMB      12              0.0000000000
      1573        12  POPC      H5X            -0.1521947257       22.9701969135       10.4829676278  MEMB      12              0.0000000000
      1574        12  POPC      H5Y             0.2924829190       21.2969884086       11.0955889882  MEMB      12              0.0000000000
      1575        12  POPC      C36             1.9205747316       22.5738378821       10.9711947735  MEMB      12              0.0000000000
      1576        12  POPC      H6X             2.4614749370       22.0658029025       11.7980250872  MEMB      12              0.0000000000
      1577        12  POPC      H6Y             2.1472457931       23.6614149068       10.9603550661  MEMB      12              0.0000000000
      1578        12  POPC      C37             2.4050061560       21.8166732305        9.6491563877  MEMB      12              0.0000000000
      1579        12  POPC      H7X             2.1701770978       20.7341018478        9.7341005986  MEMB      12              0.0000000000
      1580        12  POPC      H7Y             3.5083698313       21.9405325852        9.6887622036  MEMB      12              0.0000000000
      1581        12  POPC      C38             1.7651657420       22.2050004784        8.3385738031  MEMB      12              0.0000000000
      1582        12  POPC      H8X             0.7647106294       21.7327321249        8.2367228198  MEMB      12              0.0000000000
      1583        12  POPC      H8Y             2.3944080336       21.7906889074        7.5220437873  MEMB      12              0.0000000000
      1584        12  POPC      C39             1.5684641422       23.6986502059        8.1438375723  MEMB      12              0.0000000000
      1585        12  POPC      H9X             2.5579123469       24.1673337760        8.3326475253  MEMB      12              0.0000000000
      1586        12  POPC      H9Y             0.8439588381       24.0934704298        8.8878339093  MEMB      12              0.0000000000
      1587        12  POPC      C310            0.9415307310       24.0679198190        6.8154145555  MEMB      12              0.0000000000
      1588        12  POPC      H10X            1.5793915564       23.5741112893        6.0514726723  MEMB      12              0.0000000000
      1589        12  POPC      H10Y            1.0861548200       25.1652934101        6.7196227661  MEMB      12              0.0000000000
      1590        12  POPC      C311           -0.5580351690       23.8682854524        6.6947948620  MEMB      12              0.0000000000
      1591        12  POPC      H11X           -1.0644710994       24.3406326885        7.5635477448  MEMB      12              0.0000000000
      1592        12  POPC      H11Y           -0.7933626154       22.7832819438        6.6534495037  MEMB      12              0.0000000000
      1593        12  POPC      C312           -1.1698331910       24.7174976546        5.5368521037  MEMB      12              0.0000000000
      1594        12  POPC      H12X           -1.0624429829       25.7404916904        5.9566996407  MEMB      12              0.0000000000
      1595        12  POPC      H12Y           -2.2407980423       24.4268796586        5.4830342046  MEMB      12              0.0000000000
      1596        12  POPC      C313           -0.3870582685       24.6425578166        4.2178433411  MEMB      12              0.0000000000
      1597        12  POPC      H13X            0.6037940368       25.1443057173        4.2457968629  MEMB      12              0.0000000000
      1598        12  POPC      H13Y           -0.9332324360       25.3362216456        3.5434208127  MEMB      12              0.0000000000
      1599        12  POPC      C314           -0.2009273913       23.2198448022        3.6184902050  MEMB      12              0.0000000000
      1600        12  POPC      H14X           -1.1857532178       22.7870215967        3.3408154519  MEMB      12              0.0000000000
      1601        12  POPC      H14Y            0.1198922541       22.5454556037        4.4410435758  MEMB      12              0.0000000000
      1602        12  POPC      C315            0.8165855438       23.0693464171        2.4232647595  MEMB      12              0.0000000000
      1603        12  POPC      H15X            0.2214832779       22.5271566746        1.6576234708  MEMB      12              0.0000000000
      1604        12  POPC      H15Y            1.5667023470       22.3220076040        2.7596128890  MEMB      12              0.0000000000
      1605        12  POPC      C316            1.4937208174       24.3310313579        1.8627577995  MEMB      12              0.0000000000
      1606        12  POPC      H16X            2.1553838824       24.8126413193        2.6141394298  MEMB      12              0.0000000000
      1607        12  POPC      H16Y            0.7112548864       25.0795209913        1.6140979581  MEMB      12              0.0000000000
      1608        12  POPC      H16Z            2.1509019642       24.0306097217        1.0188499184  MEMB      12              0.0000000000
      1609        13  POPC      N              15.8173654917       12.6064340198       21.1844256215  MEMB      13              0.0000000000
      1610        13  POPC      C12            15.2174973356       13.1619365728       19.8702107124  MEMB      13              0.0000000000
      1611        13  POPC      H12A           15.0881246353       14.2229489112       20.0248569730  MEMB      13              0.0000000000
      1612        13  POPC      H12B           14.2454944363       12.7090387330       19.7417820667  MEMB      13              0.0000000000
      1613        13  POPC      C13            16.0137021905       11.1425720427       21.0711689053  MEMB      13              0.0000000000
      1614        13  POPC      H13A           16.7003024316       10.7721859978       21.8180250794  MEMB      13              0.0000000000
      1615        13  POPC      H13B           15.1379629824       10.5443980008       20.8670396888  MEMB      13              0.0000000000
      1616        13  POPC      H13C           16.6225005238       11.0924962727       20.1805191711  MEMB      13              0.0000000000
      1617        13  POPC      C14            17.1796876659       13.2083500234       21.3809672240  MEMB      13              0.0000000000
      1618        13  POPC      H14A           17.8050139670       12.9173803524       20.5498814409  MEMB      13              0.0000000000
      1619        13  POPC      H14B           17.1092867812       14.2860090593       21.3907006743  MEMB      13              0.0000000000
      1620        13  POPC      H14C           17.6409927411       12.8411708376       22.2858301233  MEMB      13              0.0000000000
      1621        13  POPC      C15            14.9364410270       12.9767628173       22.3155686156  MEMB      13              0.0000000000
      1622        13  POPC      H15A           15.5344648218       13.3998076101       23.1091682877  MEMB      13              0.0000000000
      1623        13  POPC      H15B           14.2979523593       12.2454029617       22.7886909508  MEMB      13              0.0000000000
      1624        13  POPC      H15C           14.3105266299       13.7975179873       21.9977762285  MEMB      13              0.0000000000
      1625        13  POPC      C11            16.0092215069       13.0526074325       18.5695774204  MEMB      13              0.0000000000
      1626        13  POPC      H11A           16.9767613366       13.5984309986       18.5533193101  MEMB      13              0.0000000000
      1627        13  POPC      H11B           15.4723916222       13.5781312631       17.7510669838  MEMB      13              0.0000000000
      1628        13  POPC      P              16.0482337878       10.9760067928       16.8903685954  MEMB      13              0.0000000000
      1629        13  POPC      O13            14.6861012265       11.2642169052       16.3239866208  MEMB      13              0.0000000000
      1630        13  POPC      O14            16.4354562391        9.5953320589       17.0727140112  MEMB      13              0.0000000000
      1631        13  POPC      O12            16.1399706821       11.6654491673       18.2436663451  MEMB      13              0.0000000000
      1632        13  POPC      O11            17.2120441664       11.6650366093       16.0773459286  MEMB      13              0.0000000000
      1633        13  POPC      C1             18.4735579552       11.6739046854       16.8272648415  MEMB      13              0.0000000000
      1634        13  POPC      HA             18.8550392112       10.7250645075       17.2614254020  MEMB      13              0.0000000000
      1635        13  POPC      HB             18.5395428633       12.4224134878       17.6456177984  MEMB      13              0.0000000000
      1636        13  POPC      C2             19.5464066409       12.1476928503       15.8136670851  MEMB      13              0.0000000000
      1637        13  POPC      HS             20.3106083408       12.6675334393       16.4301751011  MEMB      13              0.0000000000
      1638        13  POPC      O21            19.0479055750       13.0823035831       14.7961456822  MEMB      13              0.0000000000
      1639        13  POPC      C21            18.5274397153       14.2166571507       15.1441946772  MEMB      13              0.0000000000
      1640        13  POPC      O22            18.6729723427       14.7282126303       16.2493772355  MEMB      13              0.0000000000
      1641        13  POPC      C22            17.5765275915       14.7576669305       14.0255551627  MEMB      13              0.0000000000
      1642        13  POPC      H2R            17.9398751542       15.7839409095       13.8040580049  MEMB      13              0.0000000000
      1643        13  POPC      H2S            16.6090424304       15.0234817915       14.5026666580  MEMB      13              0.0000000000
      1644        13  POPC      C3             20.1706289970       10.9467899374       15.0872777998  MEMB      13              0.0000000000
      1645        13  POPC      HX             20.5610838425       10.2492673831       15.8588528677  MEMB      13              0.0000000000
      1646        13  POPC      HY             20.8319711558       11.2837659940       14.2606010293  MEMB      13              0.0000000000
      1647        13  POPC      O31            19.1247095357       10.2602617321       14.5408288987  MEMB      13              0.0000000000
      1648        13  POPC      C31            18.8331436937       10.5168907467       13.2470681601  MEMB      13              0.0000000000
      1649        13  POPC      O32            19.4342772605       11.2609232275       12.4917921415  MEMB      13              0.0000000000
      1650        13  POPC      C32            17.6474481488        9.7386382668       12.7328781899  MEMB      13              0.0000000000
      1651        13  POPC      H2X            16.7341910837       10.1413309432       13.2208545886  MEMB      13              0.0000000000
      1652        13  POPC      H2Y            17.7600776953        8.6819276084       13.0569129788  MEMB      13              0.0000000000
      1653        13  POPC      C23            17.7282279784       13.9772555048       12.7307225482  MEMB      13              0.0000000000
      1654        13  POPC      H3R            17.3127350008       12.9756050233       12.9723474209  MEMB      13              0.0000000000
      1655        13  POPC      H3S            18.7257582215       13.8609944053       12.2556035502  MEMB      13              0.0000000000
      1656        13  POPC      C24            16.8314896807       14.6153760676       11.6327462427  MEMB      13              0.0000000000
      1657        13  POPC      H4R            17.2278450721       15.6456712701       11.5073859651  MEMB      13              0.0000000000
      1658        13  POPC      H4S            15.7851291990       14.7911432814       11.9622253766  MEMB      13              0.0000000000
      1659        13  POPC      C25            16.8855836222       13.9690968768       10.2338072257  MEMB      13              0.0000000000
      1660        13  POPC      H5R            15.9276160835       14.0916380102        9.6846226111  MEMB      13              0.0000000000
      1661        13  POPC      H5S            17.1409438602       12.9070917243       10.4369260751  MEMB      13              0.0000000000
      1662        13  POPC      C26            17.9367884321       14.4674364397        9.2817397563  MEMB      13              0.0000000000
      1663        13  POPC      H6R            18.9356607139       14.2499462708        9.7167949536  MEMB      13              0.0000000000
      1664        13  POPC      H6S            17.8190782006       15.5690207318        9.1982096495  MEMB      13              0.0000000000
      1665        13  POPC      C27            17.9529992045       13.7659924773        7.9344899285  MEMB      13              0.0000000000
      1666        13  POPC      H7R            17.5891500995       12.7411377270        8.1616631994  MEMB      13              0.0000000000
      1667        13  POPC      H7S            18.9914908874       13.7075637688        7.5440526111  MEMB      13              0.0000000000
      1668        13  POPC      C28            17.1764897506       14.5178080738        6.8645241282  MEMB      13              0.0000000000
      1669        13  POPC      H8R            17.2284603556       13.8346933277        5.9898955457  MEMB      13              0.0000000000
      1670        13  POPC      H8S            17.7574193610       15.3654586063        6.4422315609  MEMB      13              0.0000000000
      1671        13  POPC      C29            15.7588970454       14.9173740707        7.0465416774  MEMB      13              0.0000000000
      1672        13  POPC      H91            15.5749216341       15.9917011264        7.1947818961  MEMB      13              0.0000000000
      1673        13  POPC      C210           14.5680317420       14.1482937308        7.0167034164  MEMB      13              0.0000000000
      1674        13  POPC      H101           13.6027269813       14.6655901544        7.1196161126  MEMB      13              0.0000000000
      1675        13  POPC      C211           14.5418284360       12.6383977059        6.8260236735  MEMB      13              0.0000000000
      1676        13  POPC      H11R           14.3394639378       12.1225900332        7.7889944260  MEMB      13              0.0000000000
      1677        13  POPC      H11S           15.5038145624       12.2971736910        6.3873099516  MEMB      13              0.0000000000
      1678        13  POPC      C212           13.5039254369       12.1664612791        5.7468170157  MEMB      13              0.0000000000
      1679        13  POPC      H12R           12.4902925856       12.6180582012        5.8009404632  MEMB      13              0.0000000000
      1680        13  POPC      H12S           13.3686681411       11.0692797751        5.8573580792  MEMB      13              0.0000000000
      1681        13  POPC      C213           13.9348588773       12.3563843774        4.2779970390  MEMB      13              0.0000000000
      1682        13  POPC      H13R           14.8015703210       11.6869708077        4.0908667657  MEMB      13              0.0000000000
      1683        13  POPC      H13S           14.1515736045       13.4236273773        4.0581154956  MEMB      13              0.0000000000
      1684        13  POPC      C214           12.8392023108       11.7647708147        3.3523754731  MEMB      13              0.0000000000
      1685        13  POPC      H14R           11.8998335549       12.2996842583        3.6088415776  MEMB      13              0.0000000000
      1686        13  POPC      H14S           12.7011114685       10.6937191333        3.6133359718  MEMB      13              0.0000000000
      1687        13  POPC      C215           13.1659689550       11.9398206277        1.8848252335  MEMB      13              0.0000000000
      1688        13  POPC      H15R           13.6139308802       12.9216362833        1.6208384450  MEMB      13              0.0000000000
      1689        13  POPC      H15S           12.1716534534       12.0165134519        1.3951561594  MEMB      13              0.0000000000
      1690        13  POPC      C216           13.8723836994       10.6752106108        1.2478319984  MEMB      13              0.0000000000
      1691        13  POPC      H16R           13.3493678976        9.7977641569        1.6847109832  MEMB      13              0.0000000000
      1692        13  POPC      H16S           14.9257560713       10.6124088550        1.5953714361  MEMB      13              0.0000000000
      1693        13  POPC      C217           13.7453187575       10.5449960458       -0.3102028066  MEMB      13              0.0000000000
      1694        13  POPC      H17R           14.3277926154       11.4219248701       -0.6652257908  MEMB      13              0.0000000000
      1695        13  POPC      H17S           12.6801236148       10.7775367125       -0.5237557178  MEMB      13              0.0000000000
      1696        13  POPC      C218           14.1682963356        9.2357454272       -1.0202133458  MEMB      13              0.0000000000
      1697        13  POPC      H18R           13.4296704994        9.0168661087       -1.8207399891  MEMB      13              0.0000000000
      1698        13  POPC      H18S           14.0581798863        8.3308024296       -0.3851745870  MEMB      13              0.0000000000
      1699        13  POPC      H18T           15.1879956272        9.3789834127       -1.4373672455  MEMB      13              0.0000000000
      1700        13  POPC      C33            17.4418398952        9.7881262429       11.2501683642  MEMB      13              0.0000000000
      1701        13  POPC      H3X            17.4016905481       10.8193267842       10.8386653619  MEMB      13              0.0000000000
      1702        13  POPC      H3Y            16.4588914062        9.2786773355       11.1574590633  MEMB      13              0.0000000000
      1703        13  POPC      C34            18.4829040450        8.9853564429       10.4000262286  MEMB      13              0.0000000000
      1704        13  POPC      H4X            18.2111804913        7.9217254104       10.5708382554  MEMB      13              0.0000000000
      1705        13  POPC      H4Y            19.4465674935        9.1988419628       10.9100239154  MEMB      13              0.0000000000
      1706        13  POPC      C35            18.5869236627        9.2765690464        8.8917374547  MEMB      13              0.0000000000
      1707        13  POPC      H5X            19.1489945134        8.5483709759        8.2687409290  MEMB      13              0.0000000000
      1708        13  POPC      H5Y            19.1076278805       10.2497203335        8.7645958221  MEMB      13              0.0000000000
      1709        13  POPC      C36            17.2082483534        9.4757094427        8.2070907377  MEMB      13              0.0000000000
      1710        13  POPC      H6X            16.6177908074       10.2986823999        8.6635958581  MEMB      13              0.0000000000
      1711        13  POPC      H6Y            16.6781438342        8.5137309578        8.3741465840  MEMB      13              0.0000000000
      1712        13  POPC      C37            17.1094091781        9.8252013424        6.7536662087  MEMB      13              0.0000000000
      1713        13  POPC      H7X            17.4756517767       10.8353625306        6.4712452109  MEMB      13              0.0000000000
      1714        13  POPC      H7Y            16.0299021670        9.7731746909        6.4962197208  MEMB      13              0.0000000000
      1715        13  POPC      C38            17.8781253701        8.9874820111        5.7558603605  MEMB      13              0.0000000000
      1716        13  POPC      H8X            17.5801535089        7.9450145258        5.9983378687  MEMB      13              0.0000000000
      1717        13  POPC      H8Y            18.9746630268        9.1449020278        5.8403898062  MEMB      13              0.0000000000
      1718        13  POPC      C39            17.4442879625        9.1870247668        4.2204307945  MEMB      13              0.0000000000
      1719        13  POPC      H9X            16.4184580190        8.7610293737        4.1975885437  MEMB      13              0.0000000000
      1720        13  POPC      H9Y            17.9542486101        8.4320488236        3.5846070539  MEMB      13              0.0000000000
      1721        13  POPC      C310           17.5421955903       10.6419392494        3.7150566482  MEMB      13              0.0000000000
      1722        13  POPC      H10X           17.2909497643       11.3370863262        4.5444944859  MEMB      13              0.0000000000
      1723        13  POPC      H10Y           16.8112964622       10.9282209415        2.9288317188  MEMB      13              0.0000000000
      1724        13  POPC      C311           18.9434324162       11.0496002642        3.1400074767  MEMB      13              0.0000000000
      1725        13  POPC      H11X           19.2272854473       10.5223901136        2.2041672886  MEMB      13              0.0000000000
      1726        13  POPC      H11Y           19.7853584871       10.9391782878        3.8564486942  MEMB      13              0.0000000000
      1727        13  POPC      C312           19.0308078061       12.5365355430        2.9167802121  MEMB      13              0.0000000000
      1728        13  POPC      H12X           20.1106290323       12.7394071429        2.7520066126  MEMB      13              0.0000000000
      1729        13  POPC      H12Y           18.8788606619       13.0706101907        3.8790686066  MEMB      13              0.0000000000
      1730        13  POPC      C313           18.0872157716       13.1600634516        1.9896334929  MEMB      13              0.0000000000
      1731        13  POPC      H13X           17.0020152253       13.1653570925        2.2276099551  MEMB      13              0.0000000000
      1732        13  POPC      H13Y           18.1891818819       12.6501252311        1.0078566661  MEMB      13              0.0000000000
      1733        13  POPC      C314           18.3823616290       14.6432271729        1.7195364781  MEMB      13              0.0000000000
      1734        13  POPC      H14X           19.2912562735       14.5782467862        1.0839187342  MEMB      13              0.0000000000
      1735        13  POPC      H14Y           18.5680951513       15.2724764586        2.6161236044  MEMB      13              0.0000000000
      1736        13  POPC      C315           17.3719478265       15.3292485019        0.7135267864  MEMB      13              0.0000000000
      1737        13  POPC      H15X           17.1321745419       14.7000173517       -0.1701586860  MEMB      13              0.0000000000
      1738        13  POPC      H15Y           17.6906233039       16.2992515576        0.2755071083  MEMB      13              0.0000000000
      1739        13  POPC      C316           15.9857224091       15.6674823679        1.3518372065  MEMB      13              0.0000000000
      1740        13  POPC      H16X           15.3304607929       15.8468125882        0.4727485987  MEMB      13              0.0000000000
      1741        13  POPC      H16Y           15.9943576850       16.4503307343        2.1401229226  MEMB      13              0.0000000000
      1742        13  POPC      H16Z           15.5706357704       14.7604780230        1.8410874024  MEMB      13              0.0000000000
      1743        14  POPC      N             -14.6243241319       -0.6397842087       20.7728887923  MEMB      14              0.0000000000
      1744        14  POPC      C12           -14.1112443417       -0.1958639191       19.3549526876  MEMB      14              0.0000000000
      1745        14  POPC      H12A          -14.6263337204       -0.8528403262       18.6697775710  MEMB      14              0.0000000000
      1746        14  POPC      H12B          -13.0603453159       -0.4357367281       19.2880769754  MEMB      14              0.0000000000
      1747        14  POPC      C13           -14.2019870539       -2.0629736756       20.8223041294  MEMB      14              0.0000000000
      1748        14  POPC      H13A          -13.4903327699       -2.1962642656       20.0209417682  MEMB      14              0.0000000000
      1749        14  POPC      H13B          -13.8896190036       -2.3459748653       21.8166564374  MEMB      14              0.0000000000
      1750        14  POPC      H13C          -15.1277681199       -2.5698468497       20.5933738649  MEMB      14              0.0000000000
      1751        14  POPC      C14           -13.9418455111        0.2028877903       21.7760139657  MEMB      14              0.0000000000
      1752        14  POPC      H14A          -14.0499934251       -0.2729121522       22.7395070647  MEMB      14              0.0000000000
      1753        14  POPC      H14B          -12.8668648380        0.1825759101       21.6740131457  MEMB      14              0.0000000000
      1754        14  POPC      H14C          -14.1528398709        1.2575899435       21.6786246899  MEMB      14              0.0000000000
      1755        14  POPC      C15           -16.1323277577       -0.4193857472       20.8287563678  MEMB      14              0.0000000000
      1756        14  POPC      H15A          -16.4173494925       -0.6168564197       19.8059328915  MEMB      14              0.0000000000
      1757        14  POPC      H15B          -16.2798078341        0.6255601099       21.0584034162  MEMB      14              0.0000000000
      1758        14  POPC      H15C          -16.6345928152       -1.0138206701       21.5776068446  MEMB      14              0.0000000000
      1759        14  POPC      C11           -14.3197455433        1.2650404965       18.9620036915  MEMB      14              0.0000000000
      1760        14  POPC      H11A          -13.5989251409        1.5755282289       18.1756600330  MEMB      14              0.0000000000
      1761        14  POPC      H11B          -14.0334859156        1.9070412272       19.8223591726  MEMB      14              0.0000000000
      1762        14  POPC      P             -16.1001563690        1.2100720494       17.2236106987  MEMB      14              0.0000000000
      1763        14  POPC      O13           -15.1016271572        1.8199621808       16.3021275156  MEMB      14              0.0000000000
      1764        14  POPC      O14           -17.4865918199        1.6424300025       17.0721115620  MEMB      14              0.0000000000
      1765        14  POPC      O12           -15.6738298728        1.5248117295       18.6967283550  MEMB      14              0.0000000000
      1766        14  POPC      O11           -15.9596062448       -0.3823452161       17.1885022320  MEMB      14              0.0000000000
      1767        14  POPC      C1            -17.0340506716       -1.2595691289       17.4682439699  MEMB      14              0.0000000000
      1768        14  POPC      HA            -18.0135626348       -0.9033697938       17.8529506520  MEMB      14              0.0000000000
      1769        14  POPC      HB            -16.6151341439       -2.0129551880       18.1691285633  MEMB      14              0.0000000000
      1770        14  POPC      C2            -17.4198066531       -2.0089979400       16.1127382204  MEMB      14              0.0000000000
      1771        14  POPC      HS            -18.0227190307       -2.9054893699       16.3718147393  MEMB      14              0.0000000000
      1772        14  POPC      O21           -16.2640906258       -2.2380996652       15.3070063716  MEMB      14              0.0000000000
      1773        14  POPC      C21           -16.4844550967       -3.1011292065       14.2733414986  MEMB      14              0.0000000000
      1774        14  POPC      O22           -17.4483042287       -3.7254321229       13.9095518806  MEMB      14              0.0000000000
      1775        14  POPC      C22           -15.0976156928       -3.1029451292       13.6346851697  MEMB      14              0.0000000000
      1776        14  POPC      H2R           -14.2833177567       -3.1147968169       14.3903966008  MEMB      14              0.0000000000
      1777        14  POPC      H2S           -14.9280015928       -2.2286043030       12.9705463421  MEMB      14              0.0000000000
      1778        14  POPC      C3            -18.3723147155       -1.2114743477       15.1900175155  MEMB      14              0.0000000000
      1779        14  POPC      HX            -19.3218183474       -0.9233041013       15.6897393459  MEMB      14              0.0000000000
      1780        14  POPC      HY            -18.7219494217       -1.9411974382       14.4287154545  MEMB      14              0.0000000000
      1781        14  POPC      O31           -17.7127604703       -0.0948493085       14.5337629716  MEMB      14              0.0000000000
      1782        14  POPC      C31           -18.4464578260        0.9249881024       14.2129812210  MEMB      14              0.0000000000
      1783        14  POPC      O32           -19.6254280158        1.0511933643       14.4409227165  MEMB      14              0.0000000000
      1784        14  POPC      C32           -17.6017882858        1.9909529826       13.5540310643  MEMB      14              0.0000000000
      1785        14  POPC      H2X           -16.5506947683        1.6338674749       13.5091573039  MEMB      14              0.0000000000
      1786        14  POPC      H2Y           -17.6744298327        2.9357526111       14.1340287347  MEMB      14              0.0000000000
      1787        14  POPC      C23           -14.8990582508       -4.3587702917       12.7712009095  MEMB      14              0.0000000000
      1788        14  POPC      H3R           -15.2991956125       -5.2091434011       13.3637184171  MEMB      14              0.0000000000
      1789        14  POPC      H3S           -13.7931266998       -4.4601274406       12.7401743064  MEMB      14              0.0000000000
      1790        14  POPC      C24           -15.5907013419       -4.2906349384       11.3957330662  MEMB      14              0.0000000000
      1791        14  POPC      H4R           -15.4740975277       -3.2158888835       11.1395199498  MEMB      14              0.0000000000
      1792        14  POPC      H4S           -16.6674702248       -4.4748439256       11.5981108233  MEMB      14              0.0000000000
      1793        14  POPC      C25           -15.1213329147       -5.2164351747       10.1910486626  MEMB      14              0.0000000000
      1794        14  POPC      H5R           -14.9569068839       -6.2921003210       10.4151680745  MEMB      14              0.0000000000
      1795        14  POPC      H5S           -14.0810927156       -4.8480210523       10.0626266583  MEMB      14              0.0000000000
      1796        14  POPC      C26           -15.9995109985       -5.1091988123        8.9515670292  MEMB      14              0.0000000000
      1797        14  POPC      H6R           -15.4275266102       -5.5414665229        8.1028621696  MEMB      14              0.0000000000
      1798        14  POPC      H6S           -16.2399923811       -4.0345988104        8.8041742780  MEMB      14              0.0000000000
      1799        14  POPC      C27           -17.3339963070       -5.9363214263        9.1069853564  MEMB      14              0.0000000000
      1800        14  POPC      H7R           -18.0451185125       -5.3786705637        9.7532450065  MEMB      14              0.0000000000
      1801        14  POPC      H7S           -17.1444152081       -6.8175549487        9.7564520422  MEMB      14              0.0000000000
      1802        14  POPC      C28           -18.0348274165       -6.2829300794        7.7936567192  MEMB      14              0.0000000000
      1803        14  POPC      H8R           -18.5197777075       -5.3417282253        7.4570812356  MEMB      14              0.0000000000
      1804        14  POPC      H8S           -18.7757541361       -6.9854409614        8.2316369860  MEMB      14              0.0000000000
      1805        14  POPC      C29           -17.1327293592       -6.9838744029        6.7683747004  MEMB      14              0.0000000000
      1806        14  POPC      H91           -16.5232731491       -7.7624116762        7.2504986779  MEMB      14              0.0000000000
      1807        14  POPC      C210          -16.7992637426       -6.6065941127        5.5432166059  MEMB      14              0.0000000000
      1808        14  POPC      H101          -16.0484638604       -7.2013254514        5.0022970071  MEMB      14              0.0000000000
      1809        14  POPC      C211          -17.1942666641       -5.3407940511        4.8515167749  MEMB      14              0.0000000000
      1810        14  POPC      H11R          -18.2179718978       -5.0058815864        5.1238811994  MEMB      14              0.0000000000
      1811        14  POPC      H11S          -17.1486186398       -5.3409899464        3.7414552185  MEMB      14              0.0000000000
      1812        14  POPC      C212          -16.3036533566       -4.1099440258        5.3063460988  MEMB      14              0.0000000000
      1813        14  POPC      H12R          -15.2584919029       -4.4569310535        5.4531731138  MEMB      14              0.0000000000
      1814        14  POPC      H12S          -16.7131794355       -3.7294124624        6.2664527682  MEMB      14              0.0000000000
      1815        14  POPC      C213          -16.1714723893       -2.8893002797        4.3481396457  MEMB      14              0.0000000000
      1816        14  POPC      H13R          -15.8754412733       -3.1668768100        3.3139066004  MEMB      14              0.0000000000
      1817        14  POPC      H13S          -15.2989858620       -2.3435894191        4.7668136976  MEMB      14              0.0000000000
      1818        14  POPC      C214          -17.3580479412       -2.0277355381        4.3019449066  MEMB      14              0.0000000000
      1819        14  POPC      H14R          -17.0282011679       -0.9988595900        4.0432243116  MEMB      14              0.0000000000
      1820        14  POPC      H14S          -17.8971495637       -1.8772837608        5.2616609835  MEMB      14              0.0000000000
      1821        14  POPC      C215          -18.2293801953       -2.2670892114        3.0893271612  MEMB      14              0.0000000000
      1822        14  POPC      H15R          -18.7137711358       -3.2668151119        3.1046386667  MEMB      14              0.0000000000
      1823        14  POPC      H15S          -17.5944280970       -2.1008276840        2.1929383080  MEMB      14              0.0000000000
      1824        14  POPC      C216          -19.3498855869       -1.2271387950        2.9614738962  MEMB      14              0.0000000000
      1825        14  POPC      H16R          -19.0162559840       -0.1674963798        2.9484277435  MEMB      14              0.0000000000
      1826        14  POPC      H16S          -19.8851946915       -1.3636219707        3.9253913594  MEMB      14              0.0000000000
      1827        14  POPC      C217          -20.4693727104       -1.5116149749        1.8866416795  MEMB      14              0.0000000000
      1828        14  POPC      H17R          -21.0387205342       -0.5727135580        1.7174423810  MEMB      14              0.0000000000
      1829        14  POPC      H17S          -21.0905556041       -2.3745736831        2.2087520548  MEMB      14              0.0000000000
      1830        14  POPC      C218          -19.8741542505       -1.8679035459        0.4990629290  MEMB      14              0.0000000000
      1831        14  POPC      H18R          -20.7109477522       -1.9538209994       -0.2266879674  MEMB      14              0.0000000000
      1832        14  POPC      H18S          -19.3846236548       -2.8627715083        0.4289310720  MEMB      14              0.0000000000
      1833        14  POPC      H18T          -19.0777314954       -1.1541649371        0.1980496126  MEMB      14              0.0000000000
      1834        14  POPC      C33           -18.3110334001        2.2561541891       12.1910816223  MEMB      14              0.0000000000
      1835        14  POPC      H3X           -19.2984260721        2.6690584982       12.4892199680  MEMB      14              0.0000000000
      1836        14  POPC      H3Y           -18.3308820806        1.2659979469       11.6875761515  MEMB      14              0.0000000000
      1837        14  POPC      C34           -17.5285967061        3.1941789297       11.2712826464  MEMB      14              0.0000000000
      1838        14  POPC      H4X           -16.4451799339        2.9872922046       11.4044260467  MEMB      14              0.0000000000
      1839        14  POPC      H4Y           -17.7213976937        4.2456529818       11.5738563650  MEMB      14              0.0000000000
      1840        14  POPC      C35           -17.7467163052        3.0177377830        9.7520262840  MEMB      14              0.0000000000
      1841        14  POPC      H5X           -18.8165462858        3.0967165084        9.4629817469  MEMB      14              0.0000000000
      1842        14  POPC      H5Y           -17.4208118562        1.9767375451        9.5412511226  MEMB      14              0.0000000000
      1843        14  POPC      C36           -16.9037434340        4.0085232063        8.9840543988  MEMB      14              0.0000000000
      1844        14  POPC      H6X           -15.8646119450        3.7827651212        9.3058621681  MEMB      14              0.0000000000
      1845        14  POPC      H6Y           -17.2786440361        4.9579880254        9.4225594606  MEMB      14              0.0000000000
      1846        14  POPC      C37           -17.0869816667        3.9910762092        7.4282766599  MEMB      14              0.0000000000
      1847        14  POPC      H7X           -16.3198150698        4.6417878162        6.9567355634  MEMB      14              0.0000000000
      1848        14  POPC      H7Y           -18.1090341260        4.3956702385        7.2669296480  MEMB      14              0.0000000000
      1849        14  POPC      C38           -16.9542216594        2.6303299810        6.7936088824  MEMB      14              0.0000000000
      1850        14  POPC      H8X           -17.1193130720        2.8152997123        5.7106254663  MEMB      14              0.0000000000
      1851        14  POPC      H8Y           -17.6259586460        1.7674183338        6.9897555803  MEMB      14              0.0000000000
      1852        14  POPC      C39           -15.5639387954        2.0083590899        6.8506841688  MEMB      14              0.0000000000
      1853        14  POPC      H9X           -15.2487548689        1.9095282088        7.9114439140  MEMB      14              0.0000000000
      1854        14  POPC      H9Y           -14.8901615770        2.8477169117        6.5753232184  MEMB      14              0.0000000000
      1855        14  POPC      C310          -15.5368314793        0.7069570048        6.0649140642  MEMB      14              0.0000000000
      1856        14  POPC      H10X          -16.0615378138        0.9423174053        5.1143295341  MEMB      14              0.0000000000
      1857        14  POPC      H10Y          -16.2684386746        0.0485663670        6.5802717535  MEMB      14              0.0000000000
      1858        14  POPC      C311          -14.1648545828        0.1242759301        6.0546724173  MEMB      14              0.0000000000
      1859        14  POPC      H11X          -14.3542315501       -0.9703387557        6.0713025486  MEMB      14              0.0000000000
      1860        14  POPC      H11Y          -13.6033767083        0.2753936080        7.0013641876  MEMB      14              0.0000000000
      1861        14  POPC      C312          -13.1927795065        0.7518660930        5.0839914578  MEMB      14              0.0000000000
      1862        14  POPC      H12X          -12.2035969082        0.2804310383        5.2672618961  MEMB      14              0.0000000000
      1863        14  POPC      H12Y          -13.2082969312        1.8182699443        5.3952189689  MEMB      14              0.0000000000
      1864        14  POPC      C313          -13.3399750665        0.4529232537        3.5870141955  MEMB      14              0.0000000000
      1865        14  POPC      H13X          -13.1729481052       -0.6347007876        3.4337249077  MEMB      14              0.0000000000
      1866        14  POPC      H13Y          -12.5412926083        0.8866351605        2.9480139395  MEMB      14              0.0000000000
      1867        14  POPC      C314          -14.6951375408        0.6891379410        2.9252304382  MEMB      14              0.0000000000
      1868        14  POPC      H14X          -15.1025985892        1.6678653632        3.2574796329  MEMB      14              0.0000000000
      1869        14  POPC      H14Y          -15.3829418141       -0.1485912226        3.1690673365  MEMB      14              0.0000000000
      1870        14  POPC      C315          -14.7218433114        0.8487914939        1.3810458873  MEMB      14              0.0000000000
      1871        14  POPC      H15X          -13.9647599995        0.2099648993        0.8780082481  MEMB      14              0.0000000000
      1872        14  POPC      H15Y          -14.5530204578        1.9351142709        1.2206617806  MEMB      14              0.0000000000
      1873        14  POPC      C316          -15.9711971379        0.3155213027        0.6906791921  MEMB      14              0.0000000000
      1874        14  POPC      H16X          -16.9711923339        0.7394575869        0.9243638648  MEMB      14              0.0000000000
      1875        14  POPC      H16Y          -15.9580539865       -0.7858050482        0.8363798193  MEMB      14              0.0000000000
      1876        14  POPC      H16Z          -15.9146330241        0.5115411812       -0.4014271938  MEMB      14              0.0000000000
      1877        15  POPC      N             -19.1766296785      -18.0715314816       19.0927073340  MEMB      15              0.0000000000
      1878        15  POPC      C12           -18.1470433275      -18.1875479303       17.9414377691  MEMB      15              0.0000000000
      1879        15  POPC      H12A          -18.6156094357      -18.1576733775       16.9688364455  MEMB      15              0.0000000000
      1880        15  POPC      H12B          -17.7185096542      -19.1768118473       18.0055910983  MEMB      15              0.0000000000
      1881        15  POPC      C13           -18.4250442412      -17.9278319242       20.3538797620  MEMB      15              0.0000000000
      1882        15  POPC      H13A          -17.7749979496      -18.7858940722       20.4408800238  MEMB      15              0.0000000000
      1883        15  POPC      H13B          -17.8186164798      -17.0500384625       20.1861775154  MEMB      15              0.0000000000
      1884        15  POPC      H13C          -19.0494324478      -17.8791697699       21.2337500017  MEMB      15              0.0000000000
      1885        15  POPC      C14           -19.9901583238      -16.8792803751       18.7691711615  MEMB      15              0.0000000000
      1886        15  POPC      H14A          -20.5797163372      -16.6524249752       19.6451608919  MEMB      15              0.0000000000
      1887        15  POPC      H14B          -19.2351257258      -16.1282754896       18.5894002179  MEMB      15              0.0000000000
      1888        15  POPC      H14C          -20.5793948402      -17.0459975199       17.8795612430  MEMB      15              0.0000000000
      1889        15  POPC      C15           -20.0783084999      -19.2460735555       19.2677780478  MEMB      15              0.0000000000
      1890        15  POPC      H15A          -19.5179572790      -20.0921784403       19.6372546906  MEMB      15              0.0000000000
      1891        15  POPC      H15B          -20.4355558677      -19.5358567472       18.2906394023  MEMB      15              0.0000000000
      1892        15  POPC      H15C          -20.8704288849      -18.9054675770       19.9181111095  MEMB      15              0.0000000000
      1893        15  POPC      C11           -16.9592738654      -17.1760832269       17.9275460205  MEMB      15              0.0000000000
      1894        15  POPC      H11A          -17.5193179727      -16.2208993255       17.8364674338  MEMB      15              0.0000000000
      1895        15  POPC      H11B          -16.4144553874      -17.3180707212       16.9697709107  MEMB      15              0.0000000000
      1896        15  POPC      P             -14.9180914052      -16.2215226853       19.1879912611  MEMB      15              0.0000000000
      1897        15  POPC      O13           -14.0301938787      -16.5196385015       20.3675301731  MEMB      15              0.0000000000
      1898        15  POPC      O14           -15.6441123559      -14.9743455923       19.2796109206  MEMB      15              0.0000000000
      1899        15  POPC      O12           -16.0290385952      -17.3803725999       19.0013736233  MEMB      15              0.0000000000
      1900        15  POPC      O11           -14.0147905294      -16.1375823571       17.8109739245  MEMB      15              0.0000000000
      1901        15  POPC      C1            -13.7398595269      -14.9771656526       17.0947059156  MEMB      15              0.0000000000
      1902        15  POPC      HA            -12.6404057091      -14.8454144666       17.0043520298  MEMB      15              0.0000000000
      1903        15  POPC      HB            -14.2152959939      -14.1471885972       17.6598777830  MEMB      15              0.0000000000
      1904        15  POPC      C2            -14.2612643364      -15.0705105391       15.6320550071  MEMB      15              0.0000000000
      1905        15  POPC      HS            -13.9132583979      -14.1981843582       15.0385401406  MEMB      15              0.0000000000
      1906        15  POPC      O21           -15.6631000776      -15.1858440163       15.4709707871  MEMB      15              0.0000000000
      1907        15  POPC      C21           -16.4711495854      -14.2525248854       15.9487739309  MEMB      15              0.0000000000
      1908        15  POPC      O22           -16.2285155752      -13.3873380279       16.7592659076  MEMB      15              0.0000000000
      1909        15  POPC      C22           -17.8154054992      -14.4648019950       15.2387292640  MEMB      15              0.0000000000
      1910        15  POPC      H2R           -18.3119057540      -13.4712465153       15.2131066626  MEMB      15              0.0000000000
      1911        15  POPC      H2S           -18.4223766173      -15.2476185857       15.7418248018  MEMB      15              0.0000000000
      1912        15  POPC      C3            -13.6798606341      -16.3591656350       14.8662074768  MEMB      15              0.0000000000
      1913        15  POPC      HX            -14.2395321250      -17.2569717327       15.2053726145  MEMB      15              0.0000000000
      1914        15  POPC      HY            -12.6172785499      -16.3091191687       15.1867323403  MEMB      15              0.0000000000
      1915        15  POPC      O31           -13.8117056643      -16.0497891363       13.4314306702  MEMB      15              0.0000000000
      1916        15  POPC      C31           -14.1000557299      -17.0193976291       12.6178684345  MEMB      15              0.0000000000
      1917        15  POPC      O32           -14.1849414067      -18.2204195546       12.8704291259  MEMB      15              0.0000000000
      1918        15  POPC      C32           -14.0702692315      -16.6118513356       11.1532676048  MEMB      15              0.0000000000
      1919        15  POPC      H2X           -13.1078905650      -16.1204235377       10.8951075275  MEMB      15              0.0000000000
      1920        15  POPC      H2Y           -14.8944071034      -15.8673030124       11.1255973103  MEMB      15              0.0000000000
      1921        15  POPC      C23           -17.6541216528      -14.9449037577       13.7370565375  MEMB      15              0.0000000000
      1922        15  POPC      H3R           -17.0780058708      -15.8936903885       13.6899873372  MEMB      15              0.0000000000
      1923        15  POPC      H3S           -17.1886765727      -14.1994226431       13.0573951772  MEMB      15              0.0000000000
      1924        15  POPC      C24           -19.0718370398      -15.2200807326       13.1927179784  MEMB      15              0.0000000000
      1925        15  POPC      H4R           -19.7132632937      -14.3130760631       13.1773791241  MEMB      15              0.0000000000
      1926        15  POPC      H4S           -19.6294785489      -15.9899366284       13.7677646436  MEMB      15              0.0000000000
      1927        15  POPC      C25           -19.2347678588      -15.6265179360       11.7158275537  MEMB      15              0.0000000000
      1928        15  POPC      H5R           -20.2818913262      -15.9373733560       11.5127941306  MEMB      15              0.0000000000
      1929        15  POPC      H5S           -18.6182444830      -16.5005126051       11.4152397515  MEMB      15              0.0000000000
      1930        15  POPC      C26           -18.8752395110      -14.5327509108       10.6512610724  MEMB      15              0.0000000000
      1931        15  POPC      H6R           -17.8374374022      -14.2653775015       10.9441760002  MEMB      15              0.0000000000
      1932        15  POPC      H6S           -19.5196450639      -13.6644632252       10.9064833996  MEMB      15              0.0000000000
      1933        15  POPC      C27           -18.8267505731      -15.0198813068        9.2547473018  MEMB      15              0.0000000000
      1934        15  POPC      H7R           -19.6569922999      -15.7287032094        9.0483710368  MEMB      15              0.0000000000
      1935        15  POPC      H7S           -17.9069540870      -15.6336728831        9.1472517011  MEMB      15              0.0000000000
      1936        15  POPC      C28           -18.7724820183      -13.8877914483        8.2077161412  MEMB      15              0.0000000000
      1937        15  POPC      H8R           -19.7946807697      -13.4585304817        8.1358386362  MEMB      15              0.0000000000
      1938        15  POPC      H8S           -18.5610460011      -14.2912765288        7.1943975753  MEMB      15              0.0000000000
      1939        15  POPC      C29           -17.7994720983      -12.8243815573        8.7271824229  MEMB      15              0.0000000000
      1940        15  POPC      H91           -18.2318788467      -11.9988540132        9.3115862689  MEMB      15              0.0000000000
      1941        15  POPC      C210          -16.4314578957      -12.6922274774        8.6922807826  MEMB      15              0.0000000000
      1942        15  POPC      H101          -15.9425960290      -11.8962856920        9.2732206585  MEMB      15              0.0000000000
      1943        15  POPC      C211          -15.4971067457      -13.6473103356        8.0315800252  MEMB      15              0.0000000000
      1944        15  POPC      H11R          -16.0157120695      -14.5834721176        7.7333002294  MEMB      15              0.0000000000
      1945        15  POPC      H11S          -14.6892083179      -13.9165518477        8.7451136432  MEMB      15              0.0000000000
      1946        15  POPC      C212          -14.9864959323      -13.1743258609        6.6877331539  MEMB      15              0.0000000000
      1947        15  POPC      H12R          -14.3040726078      -13.9649837549        6.3089458649  MEMB      15              0.0000000000
      1948        15  POPC      H12S          -14.4751499286      -12.1965856164        6.8176171873  MEMB      15              0.0000000000
      1949        15  POPC      C213          -16.0481579413      -12.7144482705        5.5838287408  MEMB      15              0.0000000000
      1950        15  POPC      H13R          -15.4474196170      -12.2839901993        4.7542864267  MEMB      15              0.0000000000
      1951        15  POPC      H13S          -16.7316414753      -11.9374292547        5.9880714030  MEMB      15              0.0000000000
      1952        15  POPC      C214          -16.9545812485      -13.7914372195        4.9286849159  MEMB      15              0.0000000000
      1953        15  POPC      H14R          -17.3251897650      -14.5609925119        5.6391462038  MEMB      15              0.0000000000
      1954        15  POPC      H14S          -16.3784129839      -14.3505123580        4.1607095588  MEMB      15              0.0000000000
      1955        15  POPC      C215          -18.1542029514      -13.2624178537        4.1974337553  MEMB      15              0.0000000000
      1956        15  POPC      H15R          -17.7942414351      -12.5693450969        3.4072448961  MEMB      15              0.0000000000
      1957        15  POPC      H15S          -18.7856220846      -12.6975509026        4.9161518146  MEMB      15              0.0000000000
      1958        15  POPC      C216          -18.9684067767      -14.3876161296        3.5884154425  MEMB      15              0.0000000000
      1959        15  POPC      H16R          -19.8524723868      -13.9158241797        3.1086635002  MEMB      15              0.0000000000
      1960        15  POPC      H16S          -19.2860551841      -15.2227011246        4.2487590712  MEMB      15              0.0000000000
      1961        15  POPC      C217          -18.2945077992      -15.0091118177        2.2867438807  MEMB      15              0.0000000000
      1962        15  POPC      H17R          -17.4391801601      -15.6133026424        2.6578094378  MEMB      15              0.0000000000
      1963        15  POPC      H17S          -17.9207570424      -14.1427256721        1.7002233642  MEMB      15              0.0000000000
      1964        15  POPC      C218          -19.0788242600      -15.6700330640        1.1233328087  MEMB      15              0.0000000000
      1965        15  POPC      H18R          -19.4478010728      -16.6811879487        1.3985469083  MEMB      15              0.0000000000
      1966        15  POPC      H18S          -18.3584128295      -15.8167491051        0.2903850478  MEMB      15              0.0000000000
      1967        15  POPC      H18T          -19.9091210107      -14.9932111756        0.8286446831  MEMB      15              0.0000000000
      1968        15  POPC      C33           -14.2665743815      -17.7061777429       10.1753440831  MEMB      15              0.0000000000
      1969        15  POPC      H3X           -15.2942984888      -18.1247322055       10.2293483845  MEMB      15              0.0000000000
      1970        15  POPC      H3Y           -13.4966427221      -18.4681036506       10.4223147595  MEMB      15              0.0000000000
      1971        15  POPC      C34           -13.8758570432      -17.3973489584        8.6862305952  MEMB      15              0.0000000000
      1972        15  POPC      H4X           -12.7736736928      -17.3940960093        8.5465789451  MEMB      15              0.0000000000
      1973        15  POPC      H4Y           -14.4316605165      -16.5057782816        8.3249756228  MEMB      15              0.0000000000
      1974        15  POPC      C35           -14.4149185858      -18.4510179317        7.7268207857  MEMB      15              0.0000000000
      1975        15  POPC      H5X           -15.4686919629      -18.6587714763        8.0109357320  MEMB      15              0.0000000000
      1976        15  POPC      H5Y           -13.9296612230      -19.4173929557        7.9817045838  MEMB      15              0.0000000000
      1977        15  POPC      C36           -14.3457895846      -17.8740033548        6.2680334880  MEMB      15              0.0000000000
      1978        15  POPC      H6X           -14.3205246888      -18.6861993460        5.5103922863  MEMB      15              0.0000000000
      1979        15  POPC      H6Y           -13.4103540031      -17.2828656482        6.1688488348  MEMB      15              0.0000000000
      1980        15  POPC      C37           -15.5552401608      -17.0511175827        5.8584262712  MEMB      15              0.0000000000
      1981        15  POPC      H7X           -15.3772676266      -16.7197426617        4.8130372243  MEMB      15              0.0000000000
      1982        15  POPC      H7Y           -15.5373636268      -16.0960735703        6.4257816933  MEMB      15              0.0000000000
      1983        15  POPC      C38           -16.9335688541      -17.7289024398        6.0085641379  MEMB      15              0.0000000000
      1984        15  POPC      H8X           -17.6441580092      -16.9271783872        5.7142465817  MEMB      15              0.0000000000
      1985        15  POPC      H8Y           -17.1700097714      -17.8503663510        7.0872965021  MEMB      15              0.0000000000
      1986        15  POPC      C39           -17.1643316014      -19.0649284771        5.2175486747  MEMB      15              0.0000000000
      1987        15  POPC      H9X           -18.2252699747      -19.3279400838        5.4164363025  MEMB      15              0.0000000000
      1988        15  POPC      H9Y           -16.4124687045      -19.8113564127        5.5520163234  MEMB      15              0.0000000000
      1989        15  POPC      C310          -17.0624262680      -18.7356895512        3.7749742531  MEMB      15              0.0000000000
      1990        15  POPC      H10X          -16.0987474780      -18.2330914538        3.5446710528  MEMB      15              0.0000000000
      1991        15  POPC      H10Y          -17.9149123767      -18.0336455675        3.6536361603  MEMB      15              0.0000000000
      1992        15  POPC      C311          -17.2723843277      -19.8847125387        2.7098723612  MEMB      15              0.0000000000
      1993        15  POPC      H11X          -18.3234025946      -20.2420507080        2.7544950837  MEMB      15              0.0000000000
      1994        15  POPC      H11Y          -16.6457589438      -20.7410028929        3.0391578928  MEMB      15              0.0000000000
      1995        15  POPC      C312          -16.9537080604      -19.3954908649        1.2679286388  MEMB      15              0.0000000000
      1996        15  POPC      H12X          -17.4135106906      -18.3863075867        1.2012083254  MEMB      15              0.0000000000
      1997        15  POPC      H12Y          -17.4115938926      -20.1169341503        0.5578716092  MEMB      15              0.0000000000
      1998        15  POPC      C313          -15.4720749204      -19.2779522705        0.9505546720  MEMB      15              0.0000000000
      1999        15  POPC      H13X          -14.9526918559      -20.1988425014        1.2919099203  MEMB      15              0.0000000000
      2000        15  POPC      H13Y          -14.9661186139      -18.4285732715        1.4573933272  MEMB      15              0.0000000000
      2001        15  POPC      C314          -15.1370165525      -19.2009223392       -0.5689016010  MEMB      15              0.0000000000
      2002        15  POPC      H14X          -15.6772722624      -18.3116295588       -0.9582651287  MEMB      15              0.0000000000
      2003        15  POPC      H14Y          -15.5451605993      -20.0694982158       -1.1286472937  MEMB      15              0.0000000000
      2004        15  POPC      C315          -13.6484644520      -19.0762247463       -0.8067130460  MEMB      15              0.0000000000
      2005        15  POPC      H15X          -13.2413589314      -18.3069346618       -0.1162217754  MEMB      15              0.0000000000
      2006        15  POPC      H15Y          -13.5436553698      -18.7130301853       -1.8514250552  MEMB      15              0.0000000000
      2007        15  POPC      C316          -12.9056777553      -20.3845753954       -1.0480816556  MEMB      15              0.0000000000
      2008        15  POPC      H16X          -13.1913700605      -20.7776161158       -2.0471928674  MEMB      15              0.0000000000
      2009        15  POPC      H16Y          -13.1159956972      -21.2429995636       -0.3748836889  MEMB      15              0.0000000000
      2010        15  POPC      H16Z          -11.8123316606      -20.2051291705       -1.1300264664  MEMB      15              0.0000000000
      2011        16  POPC      N               6.4345407441       26.3764353560       20.3515461144  MEMB      16              0.0000000000
      2012        16  POPC      C12             6.0047060532       25.0155004298       19.8161687828  MEMB      16              0.0000000000
      2013        16  POPC      H12A            5.0637214561       25.1298474549       19.2986044929  MEMB      16              0.0000000000
      2014        16  POPC      H12B            5.8700798699       24.3890773393       20.6855765640  MEMB      16              0.0000000000
      2015        16  POPC      C13             7.7528606511       26.3278477063       21.1875220396  MEMB      16              0.0000000000
      2016        16  POPC      H13A            7.9283552084       27.3439461816       21.5086846326  MEMB      16              0.0000000000
      2017        16  POPC      H13B            7.5673277357       25.6000530420       21.9635970530  MEMB      16              0.0000000000
      2018        16  POPC      H13C            8.6009958452       25.9990389740       20.6053265145  MEMB      16              0.0000000000
      2019        16  POPC      C14             6.6258599008       27.3224373657       19.1871199438  MEMB      16              0.0000000000
      2020        16  POPC      H14A            7.2518832182       26.7852644479       18.4900259456  MEMB      16              0.0000000000
      2021        16  POPC      H14B            5.6770512355       27.4705797016       18.6929377465  MEMB      16              0.0000000000
      2022        16  POPC      H14C            6.9945241760       28.3238484691       19.3534402403  MEMB      16              0.0000000000
      2023        16  POPC      C15             5.2528977847       26.9209434229       21.2185360542  MEMB      16              0.0000000000
      2024        16  POPC      H15A            4.3326273922       26.9630071033       20.6548580455  MEMB      16              0.0000000000
      2025        16  POPC      H15B            5.4958437361       27.9702972880       21.2974881697  MEMB      16              0.0000000000
      2026        16  POPC      H15C            5.1582322780       26.4141816260       22.1675517682  MEMB      16              0.0000000000
      2027        16  POPC      C11             6.8865895854       24.2806686510       18.7218569703  MEMB      16              0.0000000000
      2028        16  POPC      H11A            6.6886557637       24.8948260915       17.8174489467  MEMB      16              0.0000000000
      2029        16  POPC      H11B            6.5071306387       23.2393789364       18.6440914338  MEMB      16              0.0000000000
      2030        16  POPC      P               9.3107269779       24.4666665944       17.6903402722  MEMB      16              0.0000000000
      2031        16  POPC      O13             9.0951577801       23.2428499817       16.8356549873  MEMB      16              0.0000000000
      2032        16  POPC      O14            10.6451607494       24.7556444118       18.2594300568  MEMB      16              0.0000000000
      2033        16  POPC      O12             8.2976136643       24.4302031228       18.9381718634  MEMB      16              0.0000000000
      2034        16  POPC      O11             8.8475940891       25.7502907575       16.7936529149  MEMB      16              0.0000000000
      2035        16  POPC      C1              9.6364049211       25.9142920281       15.6059964333  MEMB      16              0.0000000000
      2036        16  POPC      HA              9.6541786450       24.9876352187       14.9933690589  MEMB      16              0.0000000000
      2037        16  POPC      HB             10.6755224711       26.1927671645       15.8834980352  MEMB      16              0.0000000000
      2038        16  POPC      C2              9.1342463876       27.0161911222       14.7466917368  MEMB      16              0.0000000000
      2039        16  POPC      HS              8.9386726975       27.9349167181       15.3400005571  MEMB      16              0.0000000000
      2040        16  POPC      O21             7.8210867646       26.7293717925       14.2925396236  MEMB      16              0.0000000000
      2041        16  POPC      C21             7.0196675685       27.4726574640       13.6020072894  MEMB      16              0.0000000000
      2042        16  POPC      O22             7.1921102930       28.6221407649       13.2458104376  MEMB      16              0.0000000000
      2043        16  POPC      C22             5.8162048075       26.6088948256       13.3007777904  MEMB      16              0.0000000000
      2044        16  POPC      H2R             5.1134270651       26.6682351170       14.1592080828  MEMB      16              0.0000000000
      2045        16  POPC      H2S             6.1634806555       25.5595593962       13.1884585288  MEMB      16              0.0000000000
      2046        16  POPC      C3             10.0843704207       27.3508404360       13.5815781397  MEMB      16              0.0000000000
      2047        16  POPC      HX             11.0961453546       27.5276936515       14.0050820019  MEMB      16              0.0000000000
      2048        16  POPC      HY              9.6570567220       28.0978288193       12.8789173914  MEMB      16              0.0000000000
      2049        16  POPC      O31            10.1272681687       26.1646950785       12.7859690920  MEMB      16              0.0000000000
      2050        16  POPC      C31            11.2361315598       26.0735743768       12.0771658026  MEMB      16              0.0000000000
      2051        16  POPC      O32            12.1477816461       26.8597145414       12.0180559326  MEMB      16              0.0000000000
      2052        16  POPC      C32            11.1349596860       24.7116317179       11.4358235117  MEMB      16              0.0000000000
      2053        16  POPC      H2X            10.9958566608       23.9399005996       12.2228448287  MEMB      16              0.0000000000
      2054        16  POPC      H2Y            12.1679403862       24.5280423631       11.0703553672  MEMB      16              0.0000000000
      2055        16  POPC      C23             5.0425064000       27.0776872859       12.0708207836  MEMB      16              0.0000000000
      2056        16  POPC      H3R             4.7949865410       28.1545035265       12.1871020916  MEMB      16              0.0000000000
      2057        16  POPC      H3S             4.0076520201       26.6736548925       12.0832750227  MEMB      16              0.0000000000
      2058        16  POPC      C24             5.7992434559       26.8704362515       10.7851858882  MEMB      16              0.0000000000
      2059        16  POPC      H4R             6.0750073785       25.7979262192       10.6957568224  MEMB      16              0.0000000000
      2060        16  POPC      H4S             6.6939937518       27.5289402983       10.7744477741  MEMB      16              0.0000000000
      2061        16  POPC      C25             5.0224436197       27.3926451282        9.4988103436  MEMB      16              0.0000000000
      2062        16  POPC      H5R             4.8069527234       28.4523045695        9.7537731025  MEMB      16              0.0000000000
      2063        16  POPC      H5S             4.1065067840       26.7656763358        9.4509486670  MEMB      16              0.0000000000
      2064        16  POPC      C26             5.8083178577       27.2032924502        8.1862933287  MEMB      16              0.0000000000
      2065        16  POPC      H6R             5.0776361205       27.0531683557        7.3629542801  MEMB      16              0.0000000000
      2066        16  POPC      H6S             6.4306600847       26.2844306192        8.2382944654  MEMB      16              0.0000000000
      2067        16  POPC      C27             6.6859367311       28.4609181764        7.8127007010  MEMB      16              0.0000000000
      2068        16  POPC      H7R             5.9643731536       29.3056824807        7.8190602416  MEMB      16              0.0000000000
      2069        16  POPC      H7S             7.0089696745       28.3270128974        6.7581673226  MEMB      16              0.0000000000
      2070        16  POPC      C28             7.9499000290       28.6939834756        8.6279996122  MEMB      16              0.0000000000
      2071        16  POPC      H8R             8.3922576515       27.6749029325        8.6387484336  MEMB      16              0.0000000000
      2072        16  POPC      H8S             7.7760570874       29.0956553847        9.6491554516  MEMB      16              0.0000000000
      2073        16  POPC      C29             8.8145445597       29.6881738109        7.9084053682  MEMB      16              0.0000000000
      2074        16  POPC      H91             8.6162795049       30.7474289331        8.1290172310  MEMB      16              0.0000000000
      2075        16  POPC      C210            9.8382800459       29.4452758027        7.0811062762  MEMB      16              0.0000000000
      2076        16  POPC      H101           10.4620819994       30.3318828755        6.8945624142  MEMB      16              0.0000000000
      2077        16  POPC      C211           10.4503407218       28.1507916942        6.6078370372  MEMB      16              0.0000000000
      2078        16  POPC      H11R           10.3668894562       27.3432255719        7.3662522787  MEMB      16              0.0000000000
      2079        16  POPC      H11S           11.5384804973       28.3083919921        6.4483524917  MEMB      16              0.0000000000
      2080        16  POPC      C212            9.8191494683       27.5690323495        5.3336771021  MEMB      16              0.0000000000
      2081        16  POPC      H12R            9.7098963568       28.3903785755        4.5935589931  MEMB      16              0.0000000000
      2082        16  POPC      H12S            8.8712248891       27.0548719995        5.6008829561  MEMB      16              0.0000000000
      2083        16  POPC      C213           10.7050744185       26.4502943060        4.6495990817  MEMB      16              0.0000000000
      2084        16  POPC      H13R           11.7793756447       26.7190367484        4.5602914900  MEMB      16              0.0000000000
      2085        16  POPC      H13S           10.3683849084       26.3690900469        3.5939634940  MEMB      16              0.0000000000
      2086        16  POPC      C214           10.8108362334       25.0934114935        5.4086102295  MEMB      16              0.0000000000
      2087        16  POPC      H14R            9.8286848289       24.6943747714        5.7409802531  MEMB      16              0.0000000000
      2088        16  POPC      H14S           11.4506553881       25.4275594382        6.2531801544  MEMB      16              0.0000000000
      2089        16  POPC      C215           11.5707523744       24.1013178403        4.5437381160  MEMB      16              0.0000000000
      2090        16  POPC      H15R           12.2325618792       23.5397258587        5.2372396324  MEMB      16              0.0000000000
      2091        16  POPC      H15S           12.3154424105       24.5501523978        3.8521425135  MEMB      16              0.0000000000
      2092        16  POPC      C216           10.7077142849       23.1053404375        3.7737366907  MEMB      16              0.0000000000
      2093        16  POPC      H16R            9.8249924284       22.9074218868        4.4186796558  MEMB      16              0.0000000000
      2094        16  POPC      H16S           11.2692235110       22.1736811097        3.5478173019  MEMB      16              0.0000000000
      2095        16  POPC      C217           10.2737676737       23.7010064137        2.4213772355  MEMB      16              0.0000000000
      2096        16  POPC      H17R           11.0697688360       23.9399981588        1.6840936798  MEMB      16              0.0000000000
      2097        16  POPC      H17S            9.7062903596       24.6262670168        2.6584069829  MEMB      16              0.0000000000
      2098        16  POPC      C218            9.3193838373       22.7072421350        1.5879497458  MEMB      16              0.0000000000
      2099        16  POPC      H18R            8.3994420851       22.3901421241        2.1241181904  MEMB      16              0.0000000000
      2100        16  POPC      H18S            9.9432390189       21.8055334856        1.4089334782  MEMB      16              0.0000000000
      2101        16  POPC      H18T            9.0361559343       23.2504260000        0.6610983261  MEMB      16              0.0000000000
      2102        16  POPC      C33            10.0739413953       24.5730992762       10.2996454649  MEMB      16              0.0000000000
      2103        16  POPC      H3X            10.3250245635       25.3039543202        9.5014422429  MEMB      16              0.0000000000
      2104        16  POPC      H3Y             9.1703180580       24.8822901211       10.8672602946  MEMB      16              0.0000000000
      2105        16  POPC      C34             9.6284462735       23.2488713181        9.7279909782  MEMB      16              0.0000000000
      2106        16  POPC      H4X             9.5300951887       22.6203011091       10.6387860846  MEMB      16              0.0000000000
      2107        16  POPC      H4Y            10.4015095048       22.8324608720        9.0473317497  MEMB      16              0.0000000000
      2108        16  POPC      C35             8.2885735866       23.4647980366        8.9919110065  MEMB      16              0.0000000000
      2109        16  POPC      H5X             8.6498751411       24.0777627687        8.1386485517  MEMB      16              0.0000000000
      2110        16  POPC      H5Y             7.4791876430       23.8934673153        9.6207652710  MEMB      16              0.0000000000
      2111        16  POPC      C36             7.8248106484       22.1380343888        8.3255499665  MEMB      16              0.0000000000
      2112        16  POPC      H6X             7.7685143196       21.3692977611        9.1256724324  MEMB      16              0.0000000000
      2113        16  POPC      H6Y             8.6087402489       21.8078349809        7.6108865751  MEMB      16              0.0000000000
      2114        16  POPC      C37             6.4781591933       22.2113685597        7.6195576833  MEMB      16              0.0000000000
      2115        16  POPC      H7X             5.6002375983       22.2862815002        8.2962866890  MEMB      16              0.0000000000
      2116        16  POPC      H7Y             6.3573680641       21.2206828244        7.1314263595  MEMB      16              0.0000000000
      2117        16  POPC      C38             6.3017326793       23.4744901553        6.7278799880  MEMB      16              0.0000000000
      2118        16  POPC      H8X             7.1670198945       23.4524058539        6.0313810525  MEMB      16              0.0000000000
      2119        16  POPC      H8Y             6.4906530968       24.4036520114        7.3069207947  MEMB      16              0.0000000000
      2120        16  POPC      C39             4.9746674066       23.4727009615        5.8901513126  MEMB      16              0.0000000000
      2121        16  POPC      H9X             4.1027917506       23.4406959578        6.5779954444  MEMB      16              0.0000000000
      2122        16  POPC      H9Y             4.8907533959       22.5896918361        5.2211417578  MEMB      16              0.0000000000
      2123        16  POPC      C310            4.9254564374       24.7779983695        5.0740276407  MEMB      16              0.0000000000
      2124        16  POPC      H10X            5.1168238241       25.5754479459        5.8235429152  MEMB      16              0.0000000000
      2125        16  POPC      H10Y            3.9387932432       24.9375529949        4.5888895241  MEMB      16              0.0000000000
      2126        16  POPC      C311            6.0605821649       24.8524892539        4.0085937883  MEMB      16              0.0000000000
      2127        16  POPC      H11X            6.2624938777       23.8075599224        3.6897279775  MEMB      16              0.0000000000
      2128        16  POPC      H11Y            6.9727797525       25.1826401563        4.5500885405  MEMB      16              0.0000000000
      2129        16  POPC      C312            5.8376228276       25.9722162605        2.9841779490  MEMB      16              0.0000000000
      2130        16  POPC      H12X            5.9046787285       26.9293389762        3.5443036333  MEMB      16              0.0000000000
      2131        16  POPC      H12Y            4.8456560649       25.8771018557        2.4929791649  MEMB      16              0.0000000000
      2132        16  POPC      C313            6.9743025880       26.0908524058        1.9620810807  MEMB      16              0.0000000000
      2133        16  POPC      H13X            7.1892761489       25.0710657568        1.5771874196  MEMB      16              0.0000000000
      2134        16  POPC      H13Y            7.8310804107       26.4150636622        2.5906813282  MEMB      16              0.0000000000
      2135        16  POPC      C314            6.8063145302       27.1103914038        0.8577171684  MEMB      16              0.0000000000
      2136        16  POPC      H14X            6.8265748938       28.1818849385        1.1506535730  MEMB      16              0.0000000000
      2137        16  POPC      H14Y            5.8673619546       26.8162797570        0.3417841593  MEMB      16              0.0000000000
      2138        16  POPC      C315            7.7195051284       26.8690747083       -0.3047988246  MEMB      16              0.0000000000
      2139        16  POPC      H15X            7.8045781076       25.7990648807       -0.5914392879  MEMB      16              0.0000000000
      2140        16  POPC      H15Y            8.7605770048       27.1668945148       -0.0562161820  MEMB      16              0.0000000000
      2141        16  POPC      C316            7.4685421568       27.6662592973       -1.6239744871  MEMB      16              0.0000000000
      2142        16  POPC      H16X            7.6939785886       28.7460357967       -1.4913783555  MEMB      16              0.0000000000
      2143        16  POPC      H16Y            6.4689835673       27.5037190242       -2.0809047988  MEMB      16              0.0000000000
      2144        16  POPC      H16Z            8.1065195448       27.1895941415       -2.3986334868  MEMB      16              0.0000000000
      2145        17  POPC      N              14.2448085745       18.1614599738       18.9496242309  MEMB      17              0.0000000000
      2146        17  POPC      C12            14.4970992714       19.1908632295       17.7953976260  MEMB      17              0.0000000000
      2147        17  POPC      H12A           13.5540326388       19.5447293654       17.4057773143  MEMB      17              0.0000000000
      2148        17  POPC      H12B           14.9822463396       18.7054062471       16.9615128215  MEMB      17              0.0000000000
      2149        17  POPC      C13            13.5937123916       16.9428840744       18.3132814229  MEMB      17              0.0000000000
      2150        17  POPC      H13A           12.7600818951       17.3071876127       17.7312650203  MEMB      17              0.0000000000
      2151        17  POPC      H13B           14.3478957894       16.4128024821       17.7505907803  MEMB      17              0.0000000000
      2152        17  POPC      H13C           13.3931920179       16.2900160573       19.1499145372  MEMB      17              0.0000000000
      2153        17  POPC      C14            15.5539684661       17.5658300341       19.5034196007  MEMB      17              0.0000000000
      2154        17  POPC      H14A           16.2545240190       17.4099806744       18.6963676379  MEMB      17              0.0000000000
      2155        17  POPC      H14B           15.9527678333       18.3154875651       20.1707821080  MEMB      17              0.0000000000
      2156        17  POPC      H14C           15.2005129499       16.7110396269       20.0609162395  MEMB      17              0.0000000000
      2157        17  POPC      C15            13.3315418956       18.7150765905       20.0022098339  MEMB      17              0.0000000000
      2158        17  POPC      H15A           13.2012845919       17.9684315910       20.7715953639  MEMB      17              0.0000000000
      2159        17  POPC      H15B           12.4232036575       18.9310700638       19.4593760183  MEMB      17              0.0000000000
      2160        17  POPC      H15C           13.7802577014       19.5897074151       20.4495075076  MEMB      17              0.0000000000
      2161        17  POPC      C11            15.4729746431       20.4176347173       18.1141449822  MEMB      17              0.0000000000
      2162        17  POPC      H11A           15.5246729125       21.0231712404       17.1841053175  MEMB      17              0.0000000000
      2163        17  POPC      H11B           16.4483903929       19.9027558863       18.2475049061  MEMB      17              0.0000000000
      2164        17  POPC      P              14.1446926364       22.2376091522       19.3327848979  MEMB      17              0.0000000000
      2165        17  POPC      O13            14.8764806672       23.4923028796       19.1122438260  MEMB      17              0.0000000000
      2166        17  POPC      O14            13.3034469579       22.0874914922       20.5248273411  MEMB      17              0.0000000000
      2167        17  POPC      O12            15.1978180449       21.0750009376       19.2932882586  MEMB      17              0.0000000000
      2168        17  POPC      O11            13.2930867593       21.9870402725       18.0587779253  MEMB      17              0.0000000000
      2169        17  POPC      C1             11.9362096300       22.2889884728       17.7824674720  MEMB      17              0.0000000000
      2170        17  POPC      HA             11.5094115137       23.2283734938       18.1944385059  MEMB      17              0.0000000000
      2171        17  POPC      HB             11.2586796208       21.4831718243       18.1373387685  MEMB      17              0.0000000000
      2172        17  POPC      C2             11.8804789831       22.4280136987       16.2768474474  MEMB      17              0.0000000000
      2173        17  POPC      HS             10.7932279898       22.2343425840       16.1556119683  MEMB      17              0.0000000000
      2174        17  POPC      O21            12.6852098843       21.3468392155       15.6336266505  MEMB      17              0.0000000000
      2175        17  POPC      C21            12.1689465149       20.0856979270       15.6378541658  MEMB      17              0.0000000000
      2176        17  POPC      O22            11.1409649966       19.7277898602       16.1922527689  MEMB      17              0.0000000000
      2177        17  POPC      C22            12.8602109163       19.2215414480       14.5766689404  MEMB      17              0.0000000000
      2178        17  POPC      H2R            12.8079774889       18.2154553058       15.0450523052  MEMB      17              0.0000000000
      2179        17  POPC      H2S            13.8717546070       19.5139229798       14.2222488441  MEMB      17              0.0000000000
      2180        17  POPC      C3             12.4304632474       23.7731914849       15.7051545497  MEMB      17              0.0000000000
      2181        17  POPC      HX             11.9616674702       24.5322660878       16.3672399692  MEMB      17              0.0000000000
      2182        17  POPC      HY             12.0925697065       23.8693433744       14.6511603192  MEMB      17              0.0000000000
      2183        17  POPC      O31            13.8538082747       23.6768367185       15.9387688717  MEMB      17              0.0000000000
      2184        17  POPC      C31            14.6221783021       24.2093000621       14.9980721747  MEMB      17              0.0000000000
      2185        17  POPC      O32            14.1163134670       24.6003877052       13.9141501456  MEMB      17              0.0000000000
      2186        17  POPC      C32            16.0567592644       24.1753235235       15.3594145292  MEMB      17              0.0000000000
      2187        17  POPC      H2X            16.1141706808       23.9058950878       16.4357200816  MEMB      17              0.0000000000
      2188        17  POPC      H2Y            16.6683383286       25.0747898969       15.1330252359  MEMB      17              0.0000000000
      2189        17  POPC      C23            12.0047994162       19.3117677251       13.2539808133  MEMB      17              0.0000000000
      2190        17  POPC      H3R            10.9556767485       18.9908482149       13.4291191280  MEMB      17              0.0000000000
      2191        17  POPC      H3S            12.3679577389       18.5841212941       12.4970344825  MEMB      17              0.0000000000
      2192        17  POPC      C24            11.9884214585       20.6926583088       12.4849698465  MEMB      17              0.0000000000
      2193        17  POPC      H4R            11.5460601734       21.3616481308       13.2537937072  MEMB      17              0.0000000000
      2194        17  POPC      H4S            11.2559144320       20.6341523848       11.6517041538  MEMB      17              0.0000000000
      2195        17  POPC      C25            13.3782898261       20.9829351575       11.8036785899  MEMB      17              0.0000000000
      2196        17  POPC      H5R            13.4710257534       20.3780852245       10.8763827072  MEMB      17              0.0000000000
      2197        17  POPC      H5S            14.2137372483       20.7701691478       12.5044490816  MEMB      17              0.0000000000
      2198        17  POPC      C26            13.4757259998       22.4084623969       11.3272614841  MEMB      17              0.0000000000
      2199        17  POPC      H6R            13.3385318296       23.0389457162       12.2316893966  MEMB      17              0.0000000000
      2200        17  POPC      H6S            12.6745492137       22.7205185455       10.6236579872  MEMB      17              0.0000000000
      2201        17  POPC      C27            14.7070194553       22.8833802281       10.5356154987  MEMB      17              0.0000000000
      2202        17  POPC      H7R            14.8934088368       22.1819484468        9.6944417922  MEMB      17              0.0000000000
      2203        17  POPC      H7S            15.5181217362       22.8706587853       11.2947412884  MEMB      17              0.0000000000
      2204        17  POPC      C28            14.6442490413       24.3407981739       10.1229285612  MEMB      17              0.0000000000
      2205        17  POPC      H8R            14.6705343237       24.9940716625       11.0211843500  MEMB      17              0.0000000000
      2206        17  POPC      H8S            13.6288220965       24.5313519007        9.7143721833  MEMB      17              0.0000000000
      2207        17  POPC      C29            15.7753503726       24.6721529484        9.2298239193  MEMB      17              0.0000000000
      2208        17  POPC      H91            16.8372202590       24.5942175027        9.5061535662  MEMB      17              0.0000000000
      2209        17  POPC      C210           15.5161204017       24.9094682782        7.8973112263  MEMB      17              0.0000000000
      2210        17  POPC      H101           16.3942258052       25.1216724190        7.2696961763  MEMB      17              0.0000000000
      2211        17  POPC      C211           14.2039990960       24.8580123807        7.1331321883  MEMB      17              0.0000000000
      2212        17  POPC      H11R           14.2685572648       25.5761613791        6.2879014309  MEMB      17              0.0000000000
      2213        17  POPC      H11S           13.3991083818       25.3819532000        7.6916643207  MEMB      17              0.0000000000
      2214        17  POPC      C212           13.6101464485       23.4836147388        6.7180515926  MEMB      17              0.0000000000
      2215        17  POPC      H12R           13.4465568711       23.0477539369        7.7268059881  MEMB      17              0.0000000000
      2216        17  POPC      H12S           14.3488304399       22.8669759423        6.1626925125  MEMB      17              0.0000000000
      2217        17  POPC      C213           12.2854251155       23.6206230235        6.0236309996  MEMB      17              0.0000000000
      2218        17  POPC      H13R           11.6520558942       24.3818321564        6.5273423536  MEMB      17              0.0000000000
      2219        17  POPC      H13S           11.7907143621       22.6388902149        6.1842021846  MEMB      17              0.0000000000
      2220        17  POPC      C214           12.3114498807       23.9394611213        4.5743169783  MEMB      17              0.0000000000
      2221        17  POPC      H14R           12.7926977440       23.0673143205        4.0822991689  MEMB      17              0.0000000000
      2222        17  POPC      H14S           12.7895419459       24.9243735638        4.3853804857  MEMB      17              0.0000000000
      2223        17  POPC      C215           10.9587772385       24.1018369613        3.9648853094  MEMB      17              0.0000000000
      2224        17  POPC      H15R           10.5874080271       25.1436213104        4.0702001609  MEMB      17              0.0000000000
      2225        17  POPC      H15S           10.1677027156       23.3828547596        4.2675181644  MEMB      17              0.0000000000
      2226        17  POPC      C216           10.9725386119       23.9058395473        2.4626246547  MEMB      17              0.0000000000
      2227        17  POPC      H16R           10.0182113400       24.2720597043        2.0273494415  MEMB      17              0.0000000000
      2228        17  POPC      H16S           11.0148726918       22.8199459813        2.2316179199  MEMB      17              0.0000000000
      2229        17  POPC      C217           12.1836587732       24.5312677827        1.6951752881  MEMB      17              0.0000000000
      2230        17  POPC      H17R           13.1274525342       24.0104734269        1.9641507143  MEMB      17              0.0000000000
      2231        17  POPC      H17S           12.2194046201       25.5932613839        2.0195405775  MEMB      17              0.0000000000
      2232        17  POPC      C218           12.0071757534       24.5507241735        0.1695062269  MEMB      17              0.0000000000
      2233        17  POPC      H18R           12.8173127106       25.0558963561       -0.3986488384  MEMB      17              0.0000000000
      2234        17  POPC      H18S           11.0523349325       25.0825536327       -0.0298858708  MEMB      17              0.0000000000
      2235        17  POPC      H18T           11.9908135483       23.5134520169       -0.2281364715  MEMB      17              0.0000000000
      2236        17  POPC      C33            16.6920450623       23.0565814805       14.5841070155  MEMB      17              0.0000000000
      2237        17  POPC      H3X            16.4570194851       23.4423250957       13.5690769778  MEMB      17              0.0000000000
      2238        17  POPC      H3Y            16.0595134465       22.1455581612       14.6493843589  MEMB      17              0.0000000000
      2239        17  POPC      C34            18.1199079179       22.6773820598       14.8741342409  MEMB      17              0.0000000000
      2240        17  POPC      H4X            18.2591649633       22.6203603122       15.9748963277  MEMB      17              0.0000000000
      2241        17  POPC      H4Y            18.8393385330       23.4209426422       14.4693404694  MEMB      17              0.0000000000
      2242        17  POPC      C35            18.5731899979       21.3073866667       14.1648905794  MEMB      17              0.0000000000
      2243        17  POPC      H5X            18.3759471215       20.4870255496       14.8876800557  MEMB      17              0.0000000000
      2244        17  POPC      H5Y            19.6806710608       21.2717913100       14.2457621291  MEMB      17              0.0000000000
      2245        17  POPC      C36            17.9902129942       21.1523158400       12.6892341425  MEMB      17              0.0000000000
      2246        17  POPC      H6X            17.9909510067       22.1821028702       12.2722700306  MEMB      17              0.0000000000
      2247        17  POPC      H6Y            16.9172614853       20.8744881277       12.7660992373  MEMB      17              0.0000000000
      2248        17  POPC      C37            18.6586973644       20.1361050922       11.8385031593  MEMB      17              0.0000000000
      2249        17  POPC      H7X            18.3717793040       19.1592842830       12.2832732208  MEMB      17              0.0000000000
      2250        17  POPC      H7Y            19.7605373417       20.2329054969       11.9429050061  MEMB      17              0.0000000000
      2251        17  POPC      C38            18.2096063542       20.0447502101       10.4301942072  MEMB      17              0.0000000000
      2252        17  POPC      H8X            18.8429037878       19.2590208101        9.9655604802  MEMB      17              0.0000000000
      2253        17  POPC      H8Y            18.4173335422       20.9379702892        9.8030362454  MEMB      17              0.0000000000
      2254        17  POPC      C39            16.7746695121       19.5853048434       10.2642626811  MEMB      17              0.0000000000
      2255        17  POPC      H9X            16.0768640162       20.3998190823       10.5540122589  MEMB      17              0.0000000000
      2256        17  POPC      H9Y            16.5188749270       18.7239993668       10.9177473926  MEMB      17              0.0000000000
      2257        17  POPC      C310           16.3632291406       19.4061208513        8.8139799038  MEMB      17              0.0000000000
      2258        17  POPC      H10X           16.9805259730       18.6929195221        8.2269454761  MEMB      17              0.0000000000
      2259        17  POPC      H10Y           16.5474681707       20.3645027307        8.2830549882  MEMB      17              0.0000000000
      2260        17  POPC      C311           14.8294288666       19.2068243953        8.5034226667  MEMB      17              0.0000000000
      2261        17  POPC      H11X           14.2925373617       20.1024764594        8.8827328576  MEMB      17              0.0000000000
      2262        17  POPC      H11Y           14.4140081151       18.4793898862        9.2332079423  MEMB      17              0.0000000000
      2263        17  POPC      C312           14.4631580976       18.7899389723        7.0973601277  MEMB      17              0.0000000000
      2264        17  POPC      H12X           13.3682683290       18.7392118639        6.9158006345  MEMB      17              0.0000000000
      2265        17  POPC      H12Y           14.9491029637       17.8352878931        6.8027083858  MEMB      17              0.0000000000
      2266        17  POPC      C313           14.9681868973       19.6865113895        5.8858676952  MEMB      17              0.0000000000
      2267        17  POPC      H13X           16.0497864924       19.8994566055        6.0241347286  MEMB      17              0.0000000000
      2268        17  POPC      H13Y           14.4787254108       20.6674864621        6.0659691470  MEMB      17              0.0000000000
      2269        17  POPC      C314           14.7940500904       19.1358664675        4.4854744044  MEMB      17              0.0000000000
      2270        17  POPC      H14X           13.7103291590       18.9480130860        4.3286915997  MEMB      17              0.0000000000
      2271        17  POPC      H14Y           15.2803406519       18.1465541852        4.3472599211  MEMB      17              0.0000000000
      2272        17  POPC      C315           15.2230373564       20.0503621588        3.3454347838  MEMB      17              0.0000000000
      2273        17  POPC      H15X           15.8333180119       19.4801540315        2.6128084699  MEMB      17              0.0000000000
      2274        17  POPC      H15Y           15.8490260537       20.9268507956        3.6178799815  MEMB      17              0.0000000000
      2275        17  POPC      C316           14.1052419474       20.5717110748        2.5270048197  MEMB      17              0.0000000000
      2276        17  POPC      H16X           13.2288471341       20.9640905011        3.0858353249  MEMB      17              0.0000000000
      2277        17  POPC      H16Y           13.7812509914       19.6063556952        2.0826631094  MEMB      17              0.0000000000
      2278        17  POPC      H16Z           14.2754597534       21.3351451351        1.7380088248  MEMB      17              0.0000000000
      2279        18  POPC      N             -14.2480538493       13.1895378600       19.2530591356  MEMB      18              0.0000000000
      2280        18  POPC      C12           -15.6715458747       13.4944901344       19.7557919960  MEMB      18              0.0000000000
      2281        18  POPC      H12A          -15.4483042482       14.2054199161       20.5375477417  MEMB      18              0.0000000000
      2282        18  POPC      H12B          -16.2228607737       12.5992801564       20.0028773461  MEMB      18              0.0000000000
      2283        18  POPC      C13           -13.4463136300       14.4663158079       19.0895214082  MEMB      18              0.0000000000
      2284        18  POPC      H13A          -13.7718707984       14.9600661385       18.1858493809  MEMB      18              0.0000000000
      2285        18  POPC      H13B          -13.5897172335       15.1301309618       19.9292742907  MEMB      18              0.0000000000
      2286        18  POPC      H13C          -12.4211466361       14.1559297116       18.9513433368  MEMB      18              0.0000000000
      2287        18  POPC      C14           -13.5686038879       12.3359850333       20.2892725969  MEMB      18              0.0000000000
      2288        18  POPC      H14A          -14.1724084797       11.4441573966       20.3696687682  MEMB      18              0.0000000000
      2289        18  POPC      H14B          -12.5756194832       11.9993925497       20.0302593962  MEMB      18              0.0000000000
      2290        18  POPC      H14C          -13.4748107352       12.8886295064       21.2124122055  MEMB      18              0.0000000000
      2291        18  POPC      C15           -14.2518622679       12.3296498881       17.9480518957  MEMB      18              0.0000000000
      2292        18  POPC      H15A          -14.7603095155       11.4376880176       18.2831418960  MEMB      18              0.0000000000
      2293        18  POPC      H15B          -13.2269778110       12.2567840034       17.6153322679  MEMB      18              0.0000000000
      2294        18  POPC      H15C          -14.8606530033       12.8054755258       17.1934898090  MEMB      18              0.0000000000
      2295        18  POPC      C11           -16.6027111968       14.2976282944       18.8529061127  MEMB      18              0.0000000000
      2296        18  POPC      H11A          -17.5843151806       14.3183114371       19.3728550374  MEMB      18              0.0000000000
      2297        18  POPC      H11B          -16.9391518526       13.7661987721       17.9370942786  MEMB      18              0.0000000000
      2298        18  POPC      P             -16.8135683282       16.9482413035       18.7901656702  MEMB      18              0.0000000000
      2299        18  POPC      O13           -15.8007810195       17.9341656639       19.2308670258  MEMB      18              0.0000000000
      2300        18  POPC      O14           -17.8422514718       16.6504522831       19.8031158786  MEMB      18              0.0000000000
      2301        18  POPC      O12           -16.0772344555       15.6025836868       18.5192472716  MEMB      18              0.0000000000
      2302        18  POPC      O11           -17.4975371207       17.3363754471       17.4680010137  MEMB      18              0.0000000000
      2303        18  POPC      C1            -18.7412681901       16.8129055724       17.0762235176  MEMB      18              0.0000000000
      2304        18  POPC      HA            -19.5739199871       17.5443009212       17.1541566872  MEMB      18              0.0000000000
      2305        18  POPC      HB            -18.9264984911       15.7935846959       17.4774661689  MEMB      18              0.0000000000
      2306        18  POPC      C2            -18.6034852874       16.3280498291       15.5969965149  MEMB      18              0.0000000000
      2307        18  POPC      HS            -19.5153868895       15.7465048532       15.3429065273  MEMB      18              0.0000000000
      2308        18  POPC      O21           -17.3913540440       15.5338007336       15.4778243801  MEMB      18              0.0000000000
      2309        18  POPC      C21           -17.5927917501       14.2358500855       15.2802227649  MEMB      18              0.0000000000
      2310        18  POPC      O22           -18.6100039259       13.5719315342       15.4050666419  MEMB      18              0.0000000000
      2311        18  POPC      C22           -16.2114985473       13.5608454063       14.9951985224  MEMB      18              0.0000000000
      2312        18  POPC      H2R           -16.3726170523       12.5093570163       15.3157200643  MEMB      18              0.0000000000
      2313        18  POPC      H2S           -15.4486374431       13.9351120307       15.7109414862  MEMB      18              0.0000000000
      2314        18  POPC      C3            -18.6036330415       17.5601464331       14.6977825271  MEMB      18              0.0000000000
      2315        18  POPC      HX            -17.7449307539       18.2260111924       14.9292461645  MEMB      18              0.0000000000
      2316        18  POPC      HY            -19.5893070918       18.0061526926       14.9504603608  MEMB      18              0.0000000000
      2317        18  POPC      O31           -18.6018722344       17.1343532486       13.3388369929  MEMB      18              0.0000000000
      2318        18  POPC      C31           -17.4249630032       17.1723646278       12.6950154025  MEMB      18              0.0000000000
      2319        18  POPC      O32           -16.3846682689       17.5878358525       13.1606673827  MEMB      18              0.0000000000
      2320        18  POPC      C32           -17.6455695585       16.7608083992       11.2071388667  MEMB      18              0.0000000000
      2321        18  POPC      H2X           -17.4794585950       15.6639566281       11.1467690145  MEMB      18              0.0000000000
      2322        18  POPC      H2Y           -16.7766888141       17.2247951897       10.6932481001  MEMB      18              0.0000000000
      2323        18  POPC      C23           -15.7365942265       13.8150779500       13.5588519569  MEMB      18              0.0000000000
      2324        18  POPC      H3R           -15.6216585468       14.9146902275       13.4494739651  MEMB      18              0.0000000000
      2325        18  POPC      H3S           -16.5067005844       13.5933044728       12.7893889502  MEMB      18              0.0000000000
      2326        18  POPC      C24           -14.4109940923       13.1825734483       13.2145661387  MEMB      18              0.0000000000
      2327        18  POPC      H4R           -14.6342810866       12.0950631577       13.1723156226  MEMB      18              0.0000000000
      2328        18  POPC      H4S           -13.6361474614       13.4463996747       13.9657846264  MEMB      18              0.0000000000
      2329        18  POPC      C25           -13.7002863900       13.5454500092       11.8617315564  MEMB      18              0.0000000000
      2330        18  POPC      H5R           -14.0831135237       12.8142947440       11.1179733845  MEMB      18              0.0000000000
      2331        18  POPC      H5S           -12.6294609213       13.2516376981       11.8981778437  MEMB      18              0.0000000000
      2332        18  POPC      C26           -13.7846356882       14.9866238762       11.4506035867  MEMB      18              0.0000000000
      2333        18  POPC      H6R           -13.4094524033       15.6059761778       12.2931955834  MEMB      18              0.0000000000
      2334        18  POPC      H6S           -14.8534195450       15.2189987214       11.2556061742  MEMB      18              0.0000000000
      2335        18  POPC      C27           -13.0653956917       15.2841109037       10.1934271841  MEMB      18              0.0000000000
      2336        18  POPC      H7R           -12.0214968129       14.9613084609       10.3944123746  MEMB      18              0.0000000000
      2337        18  POPC      H7S           -12.9689073815       16.3578282660        9.9248346117  MEMB      18              0.0000000000
      2338        18  POPC      C28           -13.5039358132       14.5136801588        8.8749946450  MEMB      18              0.0000000000
      2339        18  POPC      H8R           -13.2789466970       13.4271279749        8.8192703929  MEMB      18              0.0000000000
      2340        18  POPC      H8S           -12.8862393147       15.0014980409        8.0908991716  MEMB      18              0.0000000000
      2341        18  POPC      C29           -14.9374551199       14.7286478901        8.3732890361  MEMB      18              0.0000000000
      2342        18  POPC      H91           -15.5203335759       13.7960857450        8.3973840338  MEMB      18              0.0000000000
      2343        18  POPC      C210          -15.5494923675       15.8206245800        7.7995274645  MEMB      18              0.0000000000
      2344        18  POPC      H101          -16.6327177330       15.7662044152        7.6160571556  MEMB      18              0.0000000000
      2345        18  POPC      C211          -14.8114415376       17.1262275706        7.5918527995  MEMB      18              0.0000000000
      2346        18  POPC      H11R          -13.7679361610       17.0937857206        7.9718065267  MEMB      18              0.0000000000
      2347        18  POPC      H11S          -15.3195171442       18.0220081120        8.0086944710  MEMB      18              0.0000000000
      2348        18  POPC      C212          -14.6104713160       17.2622718545        6.0778672172  MEMB      18              0.0000000000
      2349        18  POPC      H12R          -14.0181341353       16.4725881498        5.5681054780  MEMB      18              0.0000000000
      2350        18  POPC      H12S          -14.1263204232       18.2039297751        5.7414163440  MEMB      18              0.0000000000
      2351        18  POPC      C213          -15.8982981272       17.2046763158        5.2308520565  MEMB      18              0.0000000000
      2352        18  POPC      H13R          -16.6359600254       17.8429629727        5.7626089470  MEMB      18              0.0000000000
      2353        18  POPC      H13S          -16.3843445739       16.2082995661        5.3037427630  MEMB      18              0.0000000000
      2354        18  POPC      C214          -15.5612293076       17.7292442057        3.8334346854  MEMB      18              0.0000000000
      2355        18  POPC      H14R          -14.7976666722       17.1208200597        3.3032330617  MEMB      18              0.0000000000
      2356        18  POPC      H14S          -15.2271175365       18.7812746785        3.9596174418  MEMB      18              0.0000000000
      2357        18  POPC      C215          -16.8687511299       17.7708259561        2.9563005841  MEMB      18              0.0000000000
      2358        18  POPC      H15R          -17.6926408648       17.9627529988        3.6765022970  MEMB      18              0.0000000000
      2359        18  POPC      H15S          -17.0410371864       16.7513991302        2.5495989495  MEMB      18              0.0000000000
      2360        18  POPC      C216          -17.0811587452       18.8797434071        1.9625253232  MEMB      18              0.0000000000
      2361        18  POPC      H16R          -16.2478076264       18.8760341282        1.2277920618  MEMB      18              0.0000000000
      2362        18  POPC      H16S          -17.0102532778       19.8837688483        2.4328732441  MEMB      18              0.0000000000
      2363        18  POPC      C217          -18.4568475813       18.8620245076        1.2808804955  MEMB      18              0.0000000000
      2364        18  POPC      H17R          -18.7234646077       19.8474793077        0.8425709488  MEMB      18              0.0000000000
      2365        18  POPC      H17S          -19.1500827020       18.6617725699        2.1256563653  MEMB      18              0.0000000000
      2366        18  POPC      C218          -18.6980630306       17.9418646729        0.0944072591  MEMB      18              0.0000000000
      2367        18  POPC      H18R          -19.7854578997       17.7171510315        0.0570280091  MEMB      18              0.0000000000
      2368        18  POPC      H18S          -18.0620334718       17.0331830078        0.1583208584  MEMB      18              0.0000000000
      2369        18  POPC      H18T          -18.4565536014       18.4755090580       -0.8496363615  MEMB      18              0.0000000000
      2370        18  POPC      C33           -19.0130932254       17.2086425734       10.5319243208  MEMB      18              0.0000000000
      2371        18  POPC      H3X           -19.2208408836       18.2656923354       10.8035994260  MEMB      18              0.0000000000
      2372        18  POPC      H3Y           -19.8328762613       16.5276888830       10.8458966659  MEMB      18              0.0000000000
      2373        18  POPC      C34           -18.8608015439       17.0105171967        8.9774804626  MEMB      18              0.0000000000
      2374        18  POPC      H4X           -18.4551725240       15.9869597378        8.8287665113  MEMB      18              0.0000000000
      2375        18  POPC      H4Y           -18.1545229513       17.7321274189        8.5140473304  MEMB      18              0.0000000000
      2376        18  POPC      C35           -20.1339523773       17.0089180465        8.0606341279  MEMB      18              0.0000000000
      2377        18  POPC      H5X           -20.7122291329       17.9557916876        8.1184883478  MEMB      18              0.0000000000
      2378        18  POPC      H5Y           -20.8240556981       16.2000568365        8.3828485322  MEMB      18              0.0000000000
      2379        18  POPC      C36           -20.0116102200       16.6148982916        6.5306625436  MEMB      18              0.0000000000
      2380        18  POPC      H6X           -19.2927434480       17.3515899997        6.1125270838  MEMB      18              0.0000000000
      2381        18  POPC      H6Y           -20.9527514841       16.7468800252        5.9552018241  MEMB      18              0.0000000000
      2382        18  POPC      C37           -19.7223750744       15.1641420658        6.2337443548  MEMB      18              0.0000000000
      2383        18  POPC      H7X           -20.5871990218       14.5973225502        6.6400891456  MEMB      18              0.0000000000
      2384        18  POPC      H7Y           -18.7359508292       14.8723733523        6.6534580192  MEMB      18              0.0000000000
      2385        18  POPC      C38           -19.7128288033       14.7781586543        4.7055768911  MEMB      18              0.0000000000
      2386        18  POPC      H8X           -18.8005529660       15.1802434936        4.2152694636  MEMB      18              0.0000000000
      2387        18  POPC      H8Y           -20.5614337700       15.2912935111        4.2046946688  MEMB      18              0.0000000000
      2388        18  POPC      C39           -19.7775047635       13.2543529943        4.3942469806  MEMB      18              0.0000000000
      2389        18  POPC      H9X           -19.5365527075       13.1707826405        3.3129150338  MEMB      18              0.0000000000
      2390        18  POPC      H9Y           -20.7832098874       12.8048058836        4.5384187151  MEMB      18              0.0000000000
      2391        18  POPC      C310          -18.7845879294       12.3837209956        5.2032156190  MEMB      18              0.0000000000
      2392        18  POPC      H10X          -18.7611774840       11.3472257186        4.8039024310  MEMB      18              0.0000000000
      2393        18  POPC      H10Y          -19.0493339583       12.3534948871        6.2817872495  MEMB      18              0.0000000000
      2394        18  POPC      C311          -17.2541236365       12.8872067127        5.2320127948  MEMB      18              0.0000000000
      2395        18  POPC      H11X          -16.7403333320       12.4324629971        6.1058259468  MEMB      18              0.0000000000
      2396        18  POPC      H11Y          -17.1951604755       13.9688902438        5.4785999143  MEMB      18              0.0000000000
      2397        18  POPC      C312          -16.5687762126       12.7207357311        3.8994480113  MEMB      18              0.0000000000
      2398        18  POPC      H12X          -17.1755332954       13.3249958605        3.1916084388  MEMB      18              0.0000000000
      2399        18  POPC      H12Y          -16.6218651418       11.6655575377        3.5557878765  MEMB      18              0.0000000000
      2400        18  POPC      C313          -15.0575522403       13.1150381841        4.0168176457  MEMB      18              0.0000000000
      2401        18  POPC      H13X          -14.6055213591       12.1562685167        4.3496094338  MEMB      18              0.0000000000
      2402        18  POPC      H13Y          -14.9125587848       13.9573123011        4.7266575711  MEMB      18              0.0000000000
      2403        18  POPC      C314          -14.4654397711       13.5599875961        2.7589765052  MEMB      18              0.0000000000
      2404        18  POPC      H14X          -15.0878030321       14.4303647607        2.4599301397  MEMB      18              0.0000000000
      2405        18  POPC      H14Y          -14.6843011708       12.8720461831        1.9144901904  MEMB      18              0.0000000000
      2406        18  POPC      C315          -13.0083664261       13.9056417163        2.7429680021  MEMB      18              0.0000000000
      2407        18  POPC      H15X          -12.4296604761       12.9897973689        2.9892404093  MEMB      18              0.0000000000
      2408        18  POPC      H15Y          -12.8695090362       14.6139929155        3.5875258526  MEMB      18              0.0000000000
      2409        18  POPC      C316          -12.6703926693       14.5580521083        1.3694889910  MEMB      18              0.0000000000
      2410        18  POPC      H16X          -12.9235365469       13.6735358167        0.7466975020  MEMB      18              0.0000000000
      2411        18  POPC      H16Y          -11.6167075191       14.9095828830        1.3472376426  MEMB      18              0.0000000000
      2412        18  POPC      H16Z          -13.2806466043       15.4548259010        1.1292647913  MEMB      18              0.0000000000
      2413        19  POPC      N              22.6121951505        3.1731593381       19.1122432631  MEMB      19              0.0000000000
      2414        19  POPC      C12            22.3559678870        4.3924609334       18.2751178136  MEMB      19              0.0000000000
      2415        19  POPC      H12A           21.7312327771        4.1075674609       17.4414860275  MEMB      19              0.0000000000
      2416        19  POPC      H12B           23.2865298818        4.6436255418       17.7879108152  MEMB      19              0.0000000000
      2417        19  POPC      C13            21.2917017966        2.7933673825       19.7885481823  MEMB      19              0.0000000000
      2418        19  POPC      H13A           20.4940569495        2.5895435361       19.0895355758  MEMB      19              0.0000000000
      2419        19  POPC      H13B           21.4319616008        1.9608750540       20.4621085424  MEMB      19              0.0000000000
      2420        19  POPC      H13C           21.0487745970        3.6625345966       20.3817889569  MEMB      19              0.0000000000
      2421        19  POPC      C14            23.1007201351        2.1099629507       18.1382335009  MEMB      19              0.0000000000
      2422        19  POPC      H14A           23.1183895464        1.1375320232       18.6077717043  MEMB      19              0.0000000000
      2423        19  POPC      H14B           22.3865466952        1.8938452848       17.3574330805  MEMB      19              0.0000000000
      2424        19  POPC      H14C           23.9806483376        2.4580284346       17.6176794183  MEMB      19              0.0000000000
      2425        19  POPC      C15            23.6812471688        3.4413020721       20.1984999666  MEMB      19              0.0000000000
      2426        19  POPC      H15A           24.5810846250        3.6714243494       19.6473771709  MEMB      19              0.0000000000
      2427        19  POPC      H15B           23.7958659461        2.5160822328       20.7436884715  MEMB      19              0.0000000000
      2428        19  POPC      H15C           23.5104436756        4.3984262625       20.6687545337  MEMB      19              0.0000000000
      2429        19  POPC      C11            21.8729130372        5.6746484591       19.0393999636  MEMB      19              0.0000000000
      2430        19  POPC      H11A           22.7377231774        6.3636080120       18.9309599104  MEMB      19              0.0000000000
      2431        19  POPC      H11B           21.6685864354        5.4974195605       20.1169720402  MEMB      19              0.0000000000
      2432        19  POPC      P              19.9319125945        7.3187271283       19.0013435217  MEMB      19              0.0000000000
      2433        19  POPC      O13            20.9476134971        8.0507464236       19.8081378308  MEMB      19              0.0000000000
      2434        19  POPC      O14            18.6026343782        6.9526012003       19.6015134284  MEMB      19              0.0000000000
      2435        19  POPC      O12            20.6876881968        6.0971498972       18.3308562450  MEMB      19              0.0000000000
      2436        19  POPC      O11            19.6606509580        8.1671243873       17.7061063274  MEMB      19              0.0000000000
      2437        19  POPC      C1             18.4369059216        7.9598030685       16.8449384803  MEMB      19              0.0000000000
      2438        19  POPC      HA             18.0940093056        9.0023435073       16.6721609062  MEMB      19              0.0000000000
      2439        19  POPC      HB             17.6280395686        7.4892708246       17.4438171320  MEMB      19              0.0000000000
      2440        19  POPC      C2             18.5710357897        7.1533009826       15.5338984797  MEMB      19              0.0000000000
      2441        19  POPC      HS             17.6386651396        7.3317856320       14.9567075878  MEMB      19              0.0000000000
      2442        19  POPC      O21            18.7818201495        5.7258872165       15.8508236451  MEMB      19              0.0000000000
      2443        19  POPC      C21            18.8358388261        4.9017725275       14.8438573702  MEMB      19              0.0000000000
      2444        19  POPC      O22            18.5689178681        5.0685664429       13.6326529476  MEMB      19              0.0000000000
      2445        19  POPC      C22            19.5047938141        3.7029900401       15.3569726578  MEMB      19              0.0000000000
      2446        19  POPC      H2R            19.0112278531        2.8310740566       14.8768932657  MEMB      19              0.0000000000
      2447        19  POPC      H2S            19.3946505731        3.5500536638       16.4518698570  MEMB      19              0.0000000000
      2448        19  POPC      C3             19.8022339513        7.6569845496       14.6751330517  MEMB      19              0.0000000000
      2449        19  POPC      HX             19.8267901750        8.7676980765       14.6809190033  MEMB      19              0.0000000000
      2450        19  POPC      HY             19.5354030454        7.3224536650       13.6498470085  MEMB      19              0.0000000000
      2451        19  POPC      O31            21.0719046804        7.1482711738       15.1938791904  MEMB      19              0.0000000000
      2452        19  POPC      C31            22.1437164011        7.7645226513       14.7128994633  MEMB      19              0.0000000000
      2453        19  POPC      O32            22.1611335082        8.7221293801       13.9399206579  MEMB      19              0.0000000000
      2454        19  POPC      C32            23.3903582841        7.0541914878       15.1920971907  MEMB      19              0.0000000000
      2455        19  POPC      H2X            23.3759432746        5.9477436823       15.0926664296  MEMB      19              0.0000000000
      2456        19  POPC      H2Y            23.4560926246        7.3254092939       16.2674764835  MEMB      19              0.0000000000
      2457        19  POPC      C23            20.9734356197        3.6575770202       15.0096152012  MEMB      19              0.0000000000
      2458        19  POPC      H3R            21.5648077343        4.2485369638       15.7413024401  MEMB      19              0.0000000000
      2459        19  POPC      H3S            21.0676849297        4.2060909150       14.0480692129  MEMB      19              0.0000000000
      2460        19  POPC      C24            21.4757252152        2.2340482951       14.7392776111  MEMB      19              0.0000000000
      2461        19  POPC      H4R            20.8893697859        1.8878600828       13.8614040911  MEMB      19              0.0000000000
      2462        19  POPC      H4S            21.1867580882        1.5572541383       15.5716050903  MEMB      19              0.0000000000
      2463        19  POPC      C25            22.9783486387        2.1877022858       14.3681545136  MEMB      19              0.0000000000
      2464        19  POPC      H5R            23.4769323103        1.1958829250       14.4132062433  MEMB      19              0.0000000000
      2465        19  POPC      H5S            23.5706394163        2.7286454792       15.1368501536  MEMB      19              0.0000000000
      2466        19  POPC      C26            23.2632641770        2.8488185589       13.0075416834  MEMB      19              0.0000000000
      2467        19  POPC      H6R            23.7528256845        3.8361048754       13.1486662746  MEMB      19              0.0000000000
      2468        19  POPC      H6S            22.3005389362        3.0313077457       12.4839211005  MEMB      19              0.0000000000
      2469        19  POPC      C27            24.1454258579        1.9606252448       12.1490168555  MEMB      19              0.0000000000
      2470        19  POPC      H7R            23.9246407381        0.8932695815       12.3642545139  MEMB      19              0.0000000000
      2471        19  POPC      H7S            25.2031716252        2.1929303727       12.3970680967  MEMB      19              0.0000000000
      2472        19  POPC      C28            23.8503613295        2.0463408809       10.6682888594  MEMB      19              0.0000000000
      2473        19  POPC      H8R            24.4070791071        2.9429446042       10.3211753559  MEMB      19              0.0000000000
      2474        19  POPC      H8S            22.7643203753        2.2390116769       10.5351941194  MEMB      19              0.0000000000
      2475        19  POPC      C29            24.2974887440        0.9075858875        9.8063028105  MEMB      19              0.0000000000
      2476        19  POPC      H91            25.0717702132        0.2285284529       10.1927860037  MEMB      19              0.0000000000
      2477        19  POPC      C210           23.8065995092        0.6251960978        8.5771087629  MEMB      19              0.0000000000
      2478        19  POPC      H101           24.0922034691       -0.2169283574        7.9296083481  MEMB      19              0.0000000000
      2479        19  POPC      C211           22.7567018258        1.4075949380        7.8573782108  MEMB      19              0.0000000000
      2480        19  POPC      H11R           22.6069890366        2.3082100184        8.4904658759  MEMB      19              0.0000000000
      2481        19  POPC      H11S           21.7936070113        0.8554342130        7.9008293085  MEMB      19              0.0000000000
      2482        19  POPC      C212           22.9711911222        1.7469505431        6.4122545030  MEMB      19              0.0000000000
      2483        19  POPC      H12R           22.9675291022        0.7274811416        5.9706787067  MEMB      19              0.0000000000
      2484        19  POPC      H12S           23.9891282521        2.1916128423        6.4322629661  MEMB      19              0.0000000000
      2485        19  POPC      C213           21.9803259295        2.5824204672        5.6800647257  MEMB      19              0.0000000000
      2486        19  POPC      H13R           21.9331605997        3.5481690774        6.2272626862  MEMB      19              0.0000000000
      2487        19  POPC      H13S           20.9626101777        2.1404765652        5.7371716309  MEMB      19              0.0000000000
      2488        19  POPC      C214           22.3509280603        2.7764306289        4.1863806890  MEMB      19              0.0000000000
      2489        19  POPC      H14R           21.4411644226        2.5496955755        3.5903585184  MEMB      19              0.0000000000
      2490        19  POPC      H14S           23.1658203518        2.0626398300        3.9398555893  MEMB      19              0.0000000000
      2491        19  POPC      C215           22.7898635834        4.2349041312        3.8197768939  MEMB      19              0.0000000000
      2492        19  POPC      H15R           23.5004380332        4.6676186881        4.5560932777  MEMB      19              0.0000000000
      2493        19  POPC      H15S           21.9069361931        4.9085695460        3.7892039147  MEMB      19              0.0000000000
      2494        19  POPC      C216           23.3752626196        4.2272924498        2.3241760794  MEMB      19              0.0000000000
      2495        19  POPC      H16R           24.0539919573        3.3594877713        2.1807824239  MEMB      19              0.0000000000
      2496        19  POPC      H16S           23.8978028438        5.1982342660        2.1879973610  MEMB      19              0.0000000000
      2497        19  POPC      C217           22.2954872396        4.1592653139        1.2381816676  MEMB      19              0.0000000000
      2498        19  POPC      H17R           21.3850206359        3.7320738247        1.7102817369  MEMB      19              0.0000000000
      2499        19  POPC      H17S           22.6869854409        3.6106995279        0.3549331687  MEMB      19              0.0000000000
      2500        19  POPC      C218           21.9376587941        5.5472338594        0.6380238874  MEMB      19              0.0000000000
      2501        19  POPC      H18R           21.1346369125        5.4471622446       -0.1232002023  MEMB      19              0.0000000000
      2502        19  POPC      H18S           22.7988600320        6.0464673985        0.1446492913  MEMB      19              0.0000000000
      2503        19  POPC      H18T           21.5533180123        6.1332214889        1.5001270353  MEMB      19              0.0000000000
      2504        19  POPC      C33            24.6704122969        7.6003962964       14.6423937770  MEMB      19              0.0000000000
      2505        19  POPC      H3X            25.4260277583        7.4719318022       15.4466717839  MEMB      19              0.0000000000
      2506        19  POPC      H3Y            24.5901040870        8.6930847098       14.4582637792  MEMB      19              0.0000000000
      2507        19  POPC      C34            25.1886651628        6.7900486397       13.4241059624  MEMB      19              0.0000000000
      2508        19  POPC      H4X            25.2899296890        5.7033915814       13.6320555350  MEMB      19              0.0000000000
      2509        19  POPC      H4Y            26.1960009787        7.1418171578       13.1145023510  MEMB      19              0.0000000000
      2510        19  POPC      C35            24.2262877713        6.9578211457       12.2217143641  MEMB      19              0.0000000000
      2511        19  POPC      H5X            23.9683129529        8.0377704792       12.1832544225  MEMB      19              0.0000000000
      2512        19  POPC      H5Y            23.2797103514        6.4122145323       12.4232726400  MEMB      19              0.0000000000
      2513        19  POPC      C36            24.8086545686        6.6301497538       10.8170947312  MEMB      19              0.0000000000
      2514        19  POPC      H6X            25.2632954534        5.6220750368       10.9239034070  MEMB      19              0.0000000000
      2515        19  POPC      H6Y            25.7006553830        7.2795523014       10.6869713496  MEMB      19              0.0000000000
      2516        19  POPC      C37            23.8115416724        6.8067787983        9.6160897107  MEMB      19              0.0000000000
      2517        19  POPC      H7X            24.4001891942        6.6276438707        8.6910361797  MEMB      19              0.0000000000
      2518        19  POPC      H7Y            23.5396329485        7.8835368082        9.5848035513  MEMB      19              0.0000000000
      2519        19  POPC      C38            22.5197002874        5.9287405683        9.7940906846  MEMB      19              0.0000000000
      2520        19  POPC      H8X            22.0513973405        6.2671531579       10.7430327930  MEMB      19              0.0000000000
      2521        19  POPC      H8Y            22.7628748254        4.8480427854        9.8794109642  MEMB      19              0.0000000000
      2522        19  POPC      C39            21.5325018866        6.3294290097        8.6674080217  MEMB      19              0.0000000000
      2523        19  POPC      H9X            22.0736892364        6.3085753505        7.6973557769  MEMB      19              0.0000000000
      2524        19  POPC      H9Y            21.0782124446        7.3361241298        8.7878564228  MEMB      19              0.0000000000
      2525        19  POPC      C310           20.4139152231        5.2945989426        8.4234136412  MEMB      19              0.0000000000
      2526        19  POPC      H10X           19.9103199566        5.0997862348        9.3943725202  MEMB      19              0.0000000000
      2527        19  POPC      H10Y           20.8738760425        4.3364845560        8.0997271681  MEMB      19              0.0000000000
      2528        19  POPC      C311           19.1746545334        5.7127599723        7.4877827319  MEMB      19              0.0000000000
      2529        19  POPC      H11X           18.8670921919        6.7645628380        7.6706427063  MEMB      19              0.0000000000
      2530        19  POPC      H11Y           18.2340144859        5.2154709976        7.8075040848  MEMB      19              0.0000000000
      2531        19  POPC      C312           19.2965535059        5.4353607760        5.9733434291  MEMB      19              0.0000000000
      2532        19  POPC      H12X           19.4607304770        4.3450716124        5.8368289286  MEMB      19              0.0000000000
      2533        19  POPC      H12Y           20.2387930995        5.9749961501        5.7381843425  MEMB      19              0.0000000000
      2534        19  POPC      C313           18.1045293869        5.9536388628        5.0928918048  MEMB      19              0.0000000000
      2535        19  POPC      H13X           17.8748408653        6.9959101375        5.4014947191  MEMB      19              0.0000000000
      2536        19  POPC      H13Y           17.1992102253        5.3174375730        5.1927212391  MEMB      19              0.0000000000
      2537        19  POPC      C314           18.5363775931        6.1252503871        3.6672026901  MEMB      19              0.0000000000
      2538        19  POPC      H14X           19.5530547262        6.5688013971        3.6043455369  MEMB      19              0.0000000000
      2539        19  POPC      H14Y           17.7717973801        6.7390694093        3.1447426005  MEMB      19              0.0000000000
      2540        19  POPC      C315           18.5868552508        4.7687355944        2.8975703745  MEMB      19              0.0000000000
      2541        19  POPC      H15X           17.8241134262        4.1654610144        3.4347913221  MEMB      19              0.0000000000
      2542        19  POPC      H15Y           19.5365818839        4.2920916694        3.2218401396  MEMB      19              0.0000000000
      2543        19  POPC      C316           18.3440742914        4.8363189927        1.3363185700  MEMB      19              0.0000000000
      2544        19  POPC      H16X           18.9684876929        5.6773853879        0.9661339874  MEMB      19              0.0000000000
      2545        19  POPC      H16Y           17.3289393302        4.9772023209        0.9073962092  MEMB      19              0.0000000000
      2546        19  POPC      H16Z           18.7491520593        3.9583465897        0.7891478033  MEMB      19              0.0000000000
      2547        20  POPC      N               3.0614438359      -29.8827745410       20.4837004102  MEMB      20              0.0000000000
      2548        20  POPC      C12             3.6068270232      -28.3847973116       20.4903605998  MEMB      20              0.0000000000
      2549        20  POPC      H12A            4.6579967876      -28.2307891058       20.2961341780  MEMB      20              0.0000000000
      2550        20  POPC      H12B            3.5870315805      -28.0018951593       21.5000109931  MEMB      20              0.0000000000
      2551        20  POPC      C13             3.4225337889      -30.4190300408       19.1474379634  MEMB      20              0.0000000000
      2552        20  POPC      H13A            3.1205707488      -31.4499980062       19.0364272096  MEMB      20              0.0000000000
      2553        20  POPC      H13B            2.8570517890      -29.8731942234       18.4066994328  MEMB      20              0.0000000000
      2554        20  POPC      H13C            4.4800178764      -30.4006204919       18.9288323434  MEMB      20              0.0000000000
      2555        20  POPC      C14             3.7425034043      -30.6814212440       21.5667844624  MEMB      20              0.0000000000
      2556        20  POPC      H14A            3.4801678160      -30.2360033111       22.5150370511  MEMB      20              0.0000000000
      2557        20  POPC      H14B            3.3531509158      -31.6887959748       21.5658719664  MEMB      20              0.0000000000
      2558        20  POPC      H14C            4.7941949842      -30.6513786151       21.3229763317  MEMB      20              0.0000000000
      2559        20  POPC      C15             1.5381951071      -29.7571361480       20.6619508154  MEMB      20              0.0000000000
      2560        20  POPC      H15A            1.2864270742      -29.2296637237       21.5701278334  MEMB      20              0.0000000000
      2561        20  POPC      H15B            1.0888278072      -30.7178011993       20.8658908063  MEMB      20              0.0000000000
      2562        20  POPC      H15C            0.9759137383      -29.4347654657       19.7980544211  MEMB      20              0.0000000000
      2563        20  POPC      C11             2.8734789844      -27.3459209989       19.5746449541  MEMB      20              0.0000000000
      2564        20  POPC      H11A            3.5662456260      -26.4779195171       19.5435151026  MEMB      20              0.0000000000
      2565        20  POPC      H11B            1.9906610225      -27.0677317554       20.1891074333  MEMB      20              0.0000000000
      2566        20  POPC      P               1.5384716635      -27.0556270309       17.4396685567  MEMB      20              0.0000000000
      2567        20  POPC      O13             1.3726116082      -25.6317033894       17.8800772650  MEMB      20              0.0000000000
      2568        20  POPC      O14             0.2720445146      -27.8773074392       17.3623647909  MEMB      20              0.0000000000
      2569        20  POPC      O12             2.5121115341      -27.8744128938       18.3410095156  MEMB      20              0.0000000000
      2570        20  POPC      O11             2.3885510045      -27.2889792665       16.0520006206  MEMB      20              0.0000000000
      2571        20  POPC      C1              3.7426253748      -27.4248198261       15.9329128759  MEMB      20              0.0000000000
      2572        20  POPC      HA              4.1406319887      -28.4064361611       16.2680861141  MEMB      20              0.0000000000
      2573        20  POPC      HB              4.3099735443      -26.7898208261       16.6465047247  MEMB      20              0.0000000000
      2574        20  POPC      C2              4.1449802336      -27.1159492401       14.5116187821  MEMB      20              0.0000000000
      2575        20  POPC      HS              3.4227007997      -26.3888196033       14.0827647476  MEMB      20              0.0000000000
      2576        20  POPC      O21             4.1274508477      -28.2859388388       13.6863474602  MEMB      20              0.0000000000
      2577        20  POPC      C21             3.0200276562      -28.5359064937       12.9327645139  MEMB      20              0.0000000000
      2578        20  POPC      O22             2.0739855395      -27.7550454091       12.7877311183  MEMB      20              0.0000000000
      2579        20  POPC      C22             3.0953628407      -29.8998687019       12.2485828345  MEMB      20              0.0000000000
      2580        20  POPC      H2R             2.4031171715      -30.6086324679       12.7513457717  MEMB      20              0.0000000000
      2581        20  POPC      H2S             4.0984673419      -30.3688785291       12.3387621924  MEMB      20              0.0000000000
      2582        20  POPC      C3              5.5552368898      -26.4307053315       14.4018882422  MEMB      20              0.0000000000
      2583        20  POPC      HX              6.1518308324      -27.1434007506       15.0105441308  MEMB      20              0.0000000000
      2584        20  POPC      HY              5.4810350538      -25.4474845293       14.9138375676  MEMB      20              0.0000000000
      2585        20  POPC      O31             6.0890951757      -26.3203031364       13.0192473438  MEMB      20              0.0000000000
      2586        20  POPC      C31             5.5149316307      -25.5659943439       12.1137995806  MEMB      20              0.0000000000
      2587        20  POPC      O32             4.6537791171      -24.7560882948       12.3776087038  MEMB      20              0.0000000000
      2588        20  POPC      C32             6.1111718162      -25.7938714374       10.6934324617  MEMB      20              0.0000000000
      2589        20  POPC      H2X             6.1393786477      -26.8974325492       10.5682195414  MEMB      20              0.0000000000
      2590        20  POPC      H2Y             7.1184463903      -25.3447570638       10.5592135544  MEMB      20              0.0000000000
      2591        20  POPC      C23             2.6161383752      -29.9895446838       10.8139115300  MEMB      20              0.0000000000
      2592        20  POPC      H3R             1.6012421327      -29.5390117887       10.8503367713  MEMB      20              0.0000000000
      2593        20  POPC      H3S             2.4548798503      -31.0519217287       10.5316501137  MEMB      20              0.0000000000
      2594        20  POPC      C24             3.4072275150      -29.2500303558        9.7861054458  MEMB      20              0.0000000000
      2595        20  POPC      H4R             3.2595947398      -28.1839369883       10.0617332769  MEMB      20              0.0000000000
      2596        20  POPC      H4S             2.8307339980      -29.3474105629        8.8413864953  MEMB      20              0.0000000000
      2597        20  POPC      C25             4.8174966128      -29.7046709292        9.6017576249  MEMB      20              0.0000000000
      2598        20  POPC      H5R             4.8082158482      -30.8132602286        9.6743138276  MEMB      20              0.0000000000
      2599        20  POPC      H5S             5.4675780234      -29.2230941680       10.3632026743  MEMB      20              0.0000000000
      2600        20  POPC      C26             5.3404539906      -29.4640226678        8.1538959250  MEMB      20              0.0000000000
      2601        20  POPC      H6R             6.3657824187      -29.1087065603        8.3921667595  MEMB      20              0.0000000000
      2602        20  POPC      H6S             4.8820019419      -28.5592505565        7.7005419004  MEMB      20              0.0000000000
      2603        20  POPC      C27             5.6360442415      -30.5781292381        7.0281130285  MEMB      20              0.0000000000
      2604        20  POPC      H7R             4.8485781322      -31.3492475123        7.1680947085  MEMB      20              0.0000000000
      2605        20  POPC      H7S             6.6031843588      -31.0918165708        7.2154251596  MEMB      20              0.0000000000
      2606        20  POPC      C28             5.6002752825      -30.1469517289        5.4907401768  MEMB      20              0.0000000000
      2607        20  POPC      H8R             6.4557163772      -29.4524963546        5.3483572360  MEMB      20              0.0000000000
      2608        20  POPC      H8S             4.6875222951      -29.5644760675        5.2418925290  MEMB      20              0.0000000000
      2609        20  POPC      C29             5.8754264296      -31.2514291832        4.5601930774  MEMB      20              0.0000000000
      2610        20  POPC      H91             6.8313991555      -31.7879547952        4.6510544633  MEMB      20              0.0000000000
      2611        20  POPC      C210            5.0300369179      -31.6871107451        3.6037866210  MEMB      20              0.0000000000
      2612        20  POPC      H101            5.3680731388      -32.5162302804        2.9648091787  MEMB      20              0.0000000000
      2613        20  POPC      C211            3.6999867617      -31.0937705663        3.2596806967  MEMB      20              0.0000000000
      2614        20  POPC      H11R            3.2798019738      -31.6145586949        2.3728061998  MEMB      20              0.0000000000
      2615        20  POPC      H11S            3.8389534048      -30.0675992412        2.8572104249  MEMB      20              0.0000000000
      2616        20  POPC      C212            2.5068871483      -31.1555401214        4.2526090716  MEMB      20              0.0000000000
      2617        20  POPC      H12R            2.8101791329      -30.5500874835        5.1333827017  MEMB      20              0.0000000000
      2618        20  POPC      H12S            2.1339674119      -32.1028300311        4.6974612767  MEMB      20              0.0000000000
      2619        20  POPC      C213            1.1874063009      -30.4235567611        3.8983500180  MEMB      20              0.0000000000
      2620        20  POPC      H13R            0.5018626944      -30.6433371251        4.7445462113  MEMB      20              0.0000000000
      2621        20  POPC      H13S            0.7677124269      -30.7779455918        2.9326446677  MEMB      20              0.0000000000
      2622        20  POPC      C214            1.2691027610      -28.9103602252        3.9655265303  MEMB      20              0.0000000000
      2623        20  POPC      H14R            1.8629159948      -28.5819858290        3.0858244604  MEMB      20              0.0000000000
      2624        20  POPC      H14S            1.7165975260      -28.6979924764        4.9599960861  MEMB      20              0.0000000000
      2625        20  POPC      C215           -0.0407579595      -28.0995148573        3.6632020858  MEMB      20              0.0000000000
      2626        20  POPC      H15R            0.2402567379      -27.0356328749        3.5098819137  MEMB      20              0.0000000000
      2627        20  POPC      H15S           -0.7646756370      -28.1455239919        4.5047166621  MEMB      20              0.0000000000
      2628        20  POPC      C216           -0.7140638764      -28.5157764933        2.2870316726  MEMB      20              0.0000000000
      2629        20  POPC      H16R           -1.6782019123      -27.9715023396        2.3793614912  MEMB      20              0.0000000000
      2630        20  POPC      H16S           -0.9946357320      -29.5866968963        2.3804652613  MEMB      20              0.0000000000
      2631        20  POPC      C217            0.1418216680      -27.9598024494        1.1147897037  MEMB      20              0.0000000000
      2632        20  POPC      H17R            1.0776149787      -28.5586111514        1.1084539501  MEMB      20              0.0000000000
      2633        20  POPC      H17S            0.4468331334      -26.8923521838        1.1576735952  MEMB      20              0.0000000000
      2634        20  POPC      C218           -0.3766797616      -28.1091891481       -0.3594736160  MEMB      20              0.0000000000
      2635        20  POPC      H18R           -1.3690062208      -27.6791541168       -0.6137954228  MEMB      20              0.0000000000
      2636        20  POPC      H18S           -0.2919259282      -29.1972730208       -0.5673469974  MEMB      20              0.0000000000
      2637        20  POPC      H18T            0.3384626351      -27.5103514976       -0.9630349259  MEMB      20              0.0000000000
      2638        20  POPC      C33             5.0980227768      -25.2590541264        9.6281898216  MEMB      20              0.0000000000
      2639        20  POPC      H3X             4.8215636528      -24.2203980148        9.9094104344  MEMB      20              0.0000000000
      2640        20  POPC      H3Y             4.2073522505      -25.9229992201        9.6139157717  MEMB      20              0.0000000000
      2641        20  POPC      C34             5.8004343957      -25.2044309727        8.2746642428  MEMB      20              0.0000000000
      2642        20  POPC      H4X             6.3116114368      -26.1741500291        8.0939323836  MEMB      20              0.0000000000
      2643        20  POPC      H4Y             6.6120243132      -24.4591593236        8.4168364156  MEMB      20              0.0000000000
      2644        20  POPC      C35             4.7894577073      -25.0081853897        7.1140779394  MEMB      20              0.0000000000
      2645        20  POPC      H5X             3.9681332829      -24.3618680957        7.4909346848  MEMB      20              0.0000000000
      2646        20  POPC      H5Y             4.2873994469      -25.9727102466        6.8861522861  MEMB      20              0.0000000000
      2647        20  POPC      C36             5.3665495993      -24.4068452574        5.8623911989  MEMB      20              0.0000000000
      2648        20  POPC      H6X             6.1902974412      -25.0325810524        5.4571569145  MEMB      20              0.0000000000
      2649        20  POPC      H6Y             5.9741497592      -23.5108745218        6.1121495285  MEMB      20              0.0000000000
      2650        20  POPC      C37             4.2786873064      -23.8744615775        4.9682106860  MEMB      20              0.0000000000
      2651        20  POPC      H7X             4.5747498099      -23.4127740357        4.0020265207  MEMB      20              0.0000000000
      2652        20  POPC      H7Y             3.6782009163      -23.2244785855        5.6399688048  MEMB      20              0.0000000000
      2653        20  POPC      C38             3.2598409000      -24.8545854092        4.4649814191  MEMB      20              0.0000000000
      2654        20  POPC      H8X             2.3266567186      -24.2903363860        4.2525874151  MEMB      20              0.0000000000
      2655        20  POPC      H8Y             2.9839680066      -25.5972895939        5.2438303096  MEMB      20              0.0000000000
      2656        20  POPC      C39             3.6667832273      -25.5445163454        3.1301004900  MEMB      20              0.0000000000
      2657        20  POPC      H9X             3.8188137903      -24.7664989489        2.3517075217  MEMB      20              0.0000000000
      2658        20  POPC      H9Y             2.8012793685      -26.0701402618        2.6729970722  MEMB      20              0.0000000000
      2659        20  POPC      C310            4.8060015283      -26.5739007869        3.2378756760  MEMB      20              0.0000000000
      2660        20  POPC      H10X            4.5974218685      -27.4555127904        3.8809733735  MEMB      20              0.0000000000
      2661        20  POPC      H10Y            5.6794748110      -26.0807318962        3.7155256892  MEMB      20              0.0000000000
      2662        20  POPC      C311            5.3573298523      -27.0982283589        1.9266857818  MEMB      20              0.0000000000
      2663        20  POPC      H11X            6.1239452803      -27.8916489665        2.0574743790  MEMB      20              0.0000000000
      2664        20  POPC      H11Y            5.8163706628      -26.2428080322        1.3864464221  MEMB      20              0.0000000000
      2665        20  POPC      C312            4.3406864024      -27.6803774304        0.8763207774  MEMB      20              0.0000000000
      2666        20  POPC      H12X            3.5023355543      -26.9839684085        0.6606751114  MEMB      20              0.0000000000
      2667        20  POPC      H12Y            3.8966894551      -28.5817717933        1.3503221387  MEMB      20              0.0000000000
      2668        20  POPC      C313            5.1243113560      -28.3193501641       -0.2782489211  MEMB      20              0.0000000000
      2669        20  POPC      H13X            5.5729071619      -29.2982877147       -0.0048205860  MEMB      20              0.0000000000
      2670        20  POPC      H13Y            5.9310906553      -27.5915066787       -0.5099213666  MEMB      20              0.0000000000
      2671        20  POPC      C314            4.2582307671      -28.4013920761       -1.5595737776  MEMB      20              0.0000000000
      2672        20  POPC      H14X            5.0306229601      -28.3289095166       -2.3548581126  MEMB      20              0.0000000000
      2673        20  POPC      H14Y            3.5806113696      -27.5313902173       -1.6946649122  MEMB      20              0.0000000000
      2674        20  POPC      C315            3.4328962634      -29.6788170342       -1.6228687774  MEMB      20              0.0000000000
      2675        20  POPC      H15X            2.8948690403      -29.8584822441       -0.6675831451  MEMB      20              0.0000000000
      2676        20  POPC      H15Y            4.2053098593      -30.4329526475       -1.8855041327  MEMB      20              0.0000000000
      2677        20  POPC      C316            2.2688542693      -29.6226330955       -2.6026416343  MEMB      20              0.0000000000
      2678        20  POPC      H16X            1.6086769277      -28.7324959923       -2.5242670873  MEMB      20              0.0000000000
      2679        20  POPC      H16Y            1.7131302777      -30.5843558402       -2.6267522042  MEMB      20              0.0000000000
      2680        20  POPC      H16Z            2.7383835009      -29.4890987315       -3.6006566134  MEMB      20              0.0000000000
      2681        21  POPC      N             -11.3701947620      -22.9534779815       20.9967073262  MEMB      21              0.0000000000
      2682        21  POPC      C12           -10.9800277206      -24.2776435844       20.3373190928  MEMB      21              0.0000000000
      2683        21  POPC      H12A          -11.0618463030      -25.0181864153       21.1191772582  MEMB      21              0.0000000000
      2684        21  POPC      H12B           -9.9641620479      -24.1712928252       19.9864538319  MEMB      21              0.0000000000
      2685        21  POPC      C13           -11.5280852561      -21.7946195907       19.9589402176  MEMB      21              0.0000000000
      2686        21  POPC      H13A          -11.6813546786      -20.8346307719       20.4293974603  MEMB      21              0.0000000000
      2687        21  POPC      H13B          -10.5287428157      -21.8113335752       19.5497515215  MEMB      21              0.0000000000
      2688        21  POPC      H13C          -12.2742381711      -22.0713762560       19.2288296158  MEMB      21              0.0000000000
      2689        21  POPC      C14           -12.6183701780      -23.1867613127       21.7325357382  MEMB      21              0.0000000000
      2690        21  POPC      H14A          -12.4942934620      -24.0361372367       22.3879481839  MEMB      21              0.0000000000
      2691        21  POPC      H14B          -12.8439200205      -22.3596496685       22.3893565860  MEMB      21              0.0000000000
      2692        21  POPC      H14C          -13.4558317581      -23.3323738921       21.0663111816  MEMB      21              0.0000000000
      2693        21  POPC      C15           -10.2320598555      -22.6629366145       22.0272878731  MEMB      21              0.0000000000
      2694        21  POPC      H15A           -9.2820537362      -22.6170320501       21.5156424435  MEMB      21              0.0000000000
      2695        21  POPC      H15B          -10.2490361108      -23.4611224681       22.7546192908  MEMB      21              0.0000000000
      2696        21  POPC      H15C          -10.5157606198      -21.7418828911       22.5147032092  MEMB      21              0.0000000000
      2697        21  POPC      C11           -11.8236137533      -24.7863669804       19.0519820326  MEMB      21              0.0000000000
      2698        21  POPC      H11A          -12.8095296842      -24.9456822338       19.5387152684  MEMB      21              0.0000000000
      2699        21  POPC      H11B          -11.3432462495      -25.7112037095       18.6669559889  MEMB      21              0.0000000000
      2700        21  POPC      P             -10.8196955218      -23.7991027185       16.8957173057  MEMB      21              0.0000000000
      2701        21  POPC      O13           -11.2493381742      -22.7765179794       15.9520147850  MEMB      21              0.0000000000
      2702        21  POPC      O14           -10.5410344243      -25.2058434644       16.3988231175  MEMB      21              0.0000000000
      2703        21  POPC      O12           -11.9266474859      -23.8392088126       17.9848505310  MEMB      21              0.0000000000
      2704        21  POPC      O11            -9.5819977749      -23.2717332916       17.6638219794  MEMB      21              0.0000000000
      2705        21  POPC      C1             -8.5597632230      -24.0782123659       18.1513522476  MEMB      21              0.0000000000
      2706        21  POPC      HA             -8.8551192914      -25.1150530634       18.4197681819  MEMB      21              0.0000000000
      2707        21  POPC      HB             -8.2301339639      -23.7307672715       19.1538228588  MEMB      21              0.0000000000
      2708        21  POPC      C2             -7.2262977222      -24.0242529608       17.3596648145  MEMB      21              0.0000000000
      2709        21  POPC      HS             -6.3253335851      -23.8988291684       17.9975154165  MEMB      21              0.0000000000
      2710        21  POPC      O21            -7.2820097589      -23.0445800271       16.3220919425  MEMB      21              0.0000000000
      2711        21  POPC      C21            -6.8877106051      -21.8192576969       16.6274369427  MEMB      21              0.0000000000
      2712        21  POPC      O22            -6.5140390164      -21.5007078317       17.7430234974  MEMB      21              0.0000000000
      2713        21  POPC      C22            -7.1046048564      -20.8131454643       15.5128583760  MEMB      21              0.0000000000
      2714        21  POPC      H2R            -6.2499133535      -20.9915600826       14.8258415767  MEMB      21              0.0000000000
      2715        21  POPC      H2S            -7.1560387248      -19.7727808678       15.8992741822  MEMB      21              0.0000000000
      2716        21  POPC      C3             -6.9172246832      -25.4707227357       16.7559097702  MEMB      21              0.0000000000
      2717        21  POPC      HX             -7.1174361318      -26.1430620177       17.6174177876  MEMB      21              0.0000000000
      2718        21  POPC      HY             -5.8417342026      -25.6981686807       16.5949441795  MEMB      21              0.0000000000
      2719        21  POPC      O31            -7.8776318172      -25.8017601089       15.7225664579  MEMB      21              0.0000000000
      2720        21  POPC      C31            -7.3529848667      -25.5434967469       14.4540833850  MEMB      21              0.0000000000
      2721        21  POPC      O32            -6.1933605222      -25.2740457585       14.2136956778  MEMB      21              0.0000000000
      2722        21  POPC      C32            -8.4867374991      -25.8113388648       13.4009980348  MEMB      21              0.0000000000
      2723        21  POPC      H2X            -9.4239129023      -25.4045287294       13.8374939437  MEMB      21              0.0000000000
      2724        21  POPC      H2Y            -8.5908696076      -26.9156376117       13.4642579883  MEMB      21              0.0000000000
      2725        21  POPC      C23            -8.3059853764      -21.3044663653       14.6466151152  MEMB      21              0.0000000000
      2726        21  POPC      H3R            -9.2425857250      -21.6316906864       15.1466401803  MEMB      21              0.0000000000
      2727        21  POPC      H3S            -8.0304885740      -22.2741750410       14.1796165998  MEMB      21              0.0000000000
      2728        21  POPC      C24            -8.6192833686      -20.4161984737       13.3990462085  MEMB      21              0.0000000000
      2729        21  POPC      H4R            -7.7866328903      -20.4147205016       12.6635108479  MEMB      21              0.0000000000
      2730        21  POPC      H4S            -8.8673030811      -19.3691159718       13.6754972978  MEMB      21              0.0000000000
      2731        21  POPC      C25            -9.8500655513      -21.0723526646       12.6489478596  MEMB      21              0.0000000000
      2732        21  POPC      H5R           -10.6266518273      -21.5003524604       13.3183141471  MEMB      21              0.0000000000
      2733        21  POPC      H5S            -9.2802323589      -21.9543260229       12.2859960710  MEMB      21              0.0000000000
      2734        21  POPC      C26           -10.5464385855      -20.2074826351       11.5651913866  MEMB      21              0.0000000000
      2735        21  POPC      H6R           -11.0486112513      -19.3569508777       12.0738555595  MEMB      21              0.0000000000
      2736        21  POPC      H6S           -11.2163833207      -20.9442249624       11.0725397430  MEMB      21              0.0000000000
      2737        21  POPC      C27            -9.5808665597      -19.8828927514       10.4021507004  MEMB      21              0.0000000000
      2738        21  POPC      H7R            -9.1930880246      -20.8552655050       10.0300751239  MEMB      21              0.0000000000
      2739        21  POPC      H7S            -8.7851942987      -19.1924312707       10.7549806043  MEMB      21              0.0000000000
      2740        21  POPC      C28           -10.1096830802      -19.2375683792        9.1155242347  MEMB      21              0.0000000000
      2741        21  POPC      H8R            -9.1775741276      -19.0352158414        8.5458342041  MEMB      21              0.0000000000
      2742        21  POPC      H8S           -10.5288573040      -18.2649841998        9.4512239896  MEMB      21              0.0000000000
      2743        21  POPC      C29           -11.1268622753      -20.0984228190        8.3528810095  MEMB      21              0.0000000000
      2744        21  POPC      H91           -12.1929789375      -19.9999072386        8.6052499193  MEMB      21              0.0000000000
      2745        21  POPC      C210          -10.8162665612      -20.8657723022        7.2518038721  MEMB      21              0.0000000000
      2746        21  POPC      H101          -11.5817776459      -21.3616562730        6.6369125881  MEMB      21              0.0000000000
      2747        21  POPC      C211           -9.4135656234      -21.0557599138        6.7414245715  MEMB      21              0.0000000000
      2748        21  POPC      H11R           -9.4231842702      -22.0536528253        6.2531237335  MEMB      21              0.0000000000
      2749        21  POPC      H11S           -8.5938010368      -21.0201684484        7.4904509785  MEMB      21              0.0000000000
      2750        21  POPC      C212           -8.9312072922      -20.1128362222        5.6655227854  MEMB      21              0.0000000000
      2751        21  POPC      H12R           -7.8434203312      -20.2524318711        5.4878888249  MEMB      21              0.0000000000
      2752        21  POPC      H12S           -9.0705587473      -19.1206072609        6.1455068891  MEMB      21              0.0000000000
      2753        21  POPC      C213           -9.7052129311      -20.1217772740        4.3080603757  MEMB      21              0.0000000000
      2754        21  POPC      H13R          -10.6938639980      -19.6758512533        4.5489759425  MEMB      21              0.0000000000
      2755        21  POPC      H13S          -10.0038799457      -21.1104130705        3.8985265985  MEMB      21              0.0000000000
      2756        21  POPC      C214           -9.0867511058      -19.2824004419        3.0930410243  MEMB      21              0.0000000000
      2757        21  POPC      H14R           -8.9507235506      -18.2445986554        3.4655795456  MEMB      21              0.0000000000
      2758        21  POPC      H14S           -9.8462149831      -19.2598181148        2.2824701919  MEMB      21              0.0000000000
      2759        21  POPC      C215           -7.7975097347      -19.8447698774        2.5026840289  MEMB      21              0.0000000000
      2760        21  POPC      H15R           -7.2608725908      -20.0743841360        3.4479982483  MEMB      21              0.0000000000
      2761        21  POPC      H15S           -7.3370944586      -19.1244978797        1.7930741512  MEMB      21              0.0000000000
      2762        21  POPC      C216           -8.0491557178      -21.0948356767        1.7666161593  MEMB      21              0.0000000000
      2763        21  POPC      H16R           -8.7592837557      -20.8825472271        0.9389840364  MEMB      21              0.0000000000
      2764        21  POPC      H16S           -8.4872414390      -21.8933435061        2.4028450366  MEMB      21              0.0000000000
      2765        21  POPC      C217           -6.7742647077      -21.5551630581        1.1305811132  MEMB      21              0.0000000000
      2766        21  POPC      H17R           -6.6361769907      -22.6517752614        1.2432517164  MEMB      21              0.0000000000
      2767        21  POPC      H17S           -5.9481908010      -21.0495637978        1.6749079125  MEMB      21              0.0000000000
      2768        21  POPC      C218           -6.5958726318      -21.2092810533       -0.3668520322  MEMB      21              0.0000000000
      2769        21  POPC      H18R           -7.2122578020      -21.9212986047       -0.9562757866  MEMB      21              0.0000000000
      2770        21  POPC      H18S           -5.5484566913      -21.2421591176       -0.7358502995  MEMB      21              0.0000000000
      2771        21  POPC      H18T           -6.9149221260      -20.1698922760       -0.5953231181  MEMB      21              0.0000000000
      2772        21  POPC      C33            -7.8793852232      -25.2560628373       12.1194325473  MEMB      21              0.0000000000
      2773        21  POPC      H3X            -7.0254224298      -25.8638110109       11.7510432601  MEMB      21              0.0000000000
      2774        21  POPC      H3Y            -7.5733657201      -24.1934217406       12.2265161819  MEMB      21              0.0000000000
      2775        21  POPC      C34            -8.8685538746      -25.1120747198       10.9578638739  MEMB      21              0.0000000000
      2776        21  POPC      H4X            -9.7473647458      -24.5176430836       11.2875052748  MEMB      21              0.0000000000
      2777        21  POPC      H4Y            -9.2431099102      -26.1475194309       10.8099348148  MEMB      21              0.0000000000
      2778        21  POPC      C35            -8.4435790095      -24.5531305303        9.5999814341  MEMB      21              0.0000000000
      2779        21  POPC      H5X            -8.0610000649      -25.4244096550        9.0265465795  MEMB      21              0.0000000000
      2780        21  POPC      H5Y            -7.5870942076      -23.8702656406        9.7855885489  MEMB      21              0.0000000000
      2781        21  POPC      C36            -9.4850904689      -23.6436025672        8.9537510424  MEMB      21              0.0000000000
      2782        21  POPC      H6X            -8.8325113132      -23.0031669105        8.3226384485  MEMB      21              0.0000000000
      2783        21  POPC      H6Y            -9.8426383149      -22.9518238245        9.7461667625  MEMB      21              0.0000000000
      2784        21  POPC      C37           -10.6194393187      -24.3476165318        8.2306252176  MEMB      21              0.0000000000
      2785        21  POPC      H7X           -11.3568395495      -23.6348177928        7.8034490992  MEMB      21              0.0000000000
      2786        21  POPC      H7Y           -11.0553505837      -25.0505064472        8.9724131193  MEMB      21              0.0000000000
      2787        21  POPC      C38           -10.0933796157      -25.1053576034        7.0460676740  MEMB      21              0.0000000000
      2788        21  POPC      H8X            -9.4163184098      -25.9431778353        7.3180351518  MEMB      21              0.0000000000
      2789        21  POPC      H8Y            -9.4863895556      -24.4995392785        6.3397620909  MEMB      21              0.0000000000
      2790        21  POPC      C39           -11.3492790958      -25.7748299780        6.2755641970  MEMB      21              0.0000000000
      2791        21  POPC      H9X           -11.8396482992      -24.8412930448        5.9257535976  MEMB      21              0.0000000000
      2792        21  POPC      H9Y           -11.8206575303      -26.3228893717        7.1192198747  MEMB      21              0.0000000000
      2793        21  POPC      C310          -11.0054232720      -26.6529278754        5.0823656191  MEMB      21              0.0000000000
      2794        21  POPC      H10X          -11.9452416522      -27.1256117068        4.7251084339  MEMB      21              0.0000000000
      2795        21  POPC      H10Y          -10.4060790111      -27.5063428688        5.4654971302  MEMB      21              0.0000000000
      2796        21  POPC      C311          -10.3464046462      -25.9090408392        3.9121431175  MEMB      21              0.0000000000
      2797        21  POPC      H11X           -9.9964847399      -26.5348598762        3.0634808909  MEMB      21              0.0000000000
      2798        21  POPC      H11Y           -9.4868150189      -25.2888432779        4.2449822236  MEMB      21              0.0000000000
      2799        21  POPC      C312          -11.4018633311      -25.0750937058        3.1355879630  MEMB      21              0.0000000000
      2800        21  POPC      H12X          -12.0904160676      -24.5250345526        3.8120872963  MEMB      21              0.0000000000
      2801        21  POPC      H12Y          -12.0164622256      -25.7430419983        2.4949358902  MEMB      21              0.0000000000
      2802        21  POPC      C313          -10.7963975535      -23.8926330292        2.3698102928  MEMB      21              0.0000000000
      2803        21  POPC      H13X           -9.7368303931      -23.7165588834        2.6537752834  MEMB      21              0.0000000000
      2804        21  POPC      H13Y          -11.3829649117      -23.0495529210        2.7934554579  MEMB      21              0.0000000000
      2805        21  POPC      C314          -10.8317877403      -23.8553807013        0.8344977971  MEMB      21              0.0000000000
      2806        21  POPC      H14X          -10.4305716516      -22.8644393853        0.5322041740  MEMB      21              0.0000000000
      2807        21  POPC      H14Y          -11.8214100203      -23.9534577372        0.3391705438  MEMB      21              0.0000000000
      2808        21  POPC      C315           -9.9478182323      -24.8889052284        0.2311598891  MEMB      21              0.0000000000
      2809        21  POPC      H15X          -10.2292872561      -24.8553415213       -0.8430708644  MEMB      21              0.0000000000
      2810        21  POPC      H15Y          -10.3238583221      -25.8190339611        0.7084182886  MEMB      21              0.0000000000
      2811        21  POPC      C316           -8.4307662971      -24.8222940471        0.3719767307  MEMB      21              0.0000000000
      2812        21  POPC      H16X           -7.9094706195      -25.6097759502       -0.2132095981  MEMB      21              0.0000000000
      2813        21  POPC      H16Y           -8.2426077749      -25.0256150330        1.4478858852  MEMB      21              0.0000000000
      2814        21  POPC      H16Z           -7.9248622310      -23.8906850690        0.0395822535  MEMB      21              0.0000000000
      2815        22  POPC      N             -11.4410162200       23.4548366621       19.5371894959  MEMB      22              0.0000000000
      2816        22  POPC      C12           -10.5653218246       23.2276149953       18.2661617348  MEMB      22              0.0000000000
      2817        22  POPC      H12A          -10.7091417148       24.0764420372       17.6140815499  MEMB      22              0.0000000000
      2818        22  POPC      H12B          -10.9172515951       22.3534403056       17.7385596549  MEMB      22              0.0000000000
      2819        22  POPC      C13           -12.7856948213       23.8763616946       19.0252961653  MEMB      22              0.0000000000
      2820        22  POPC      H13A          -13.4040149261       23.9922278582       19.9031660528  MEMB      22              0.0000000000
      2821        22  POPC      H13B          -12.7776329579       24.8054868133       18.4747860013  MEMB      22              0.0000000000
      2822        22  POPC      H13C          -13.2188007407       23.0804084752       18.4376927002  MEMB      22              0.0000000000
      2823        22  POPC      C14           -11.6417588122       22.2130207597       20.3359670223  MEMB      22              0.0000000000
      2824        22  POPC      H14A          -12.1692826023       21.4270365370       19.8160175649  MEMB      22              0.0000000000
      2825        22  POPC      H14B          -10.7381030252       21.7235085319       20.6679066723  MEMB      22              0.0000000000
      2826        22  POPC      H14C          -12.2375898073       22.4769942561       21.1971890868  MEMB      22              0.0000000000
      2827        22  POPC      C15           -10.8520105655       24.5318723780       20.4669997593  MEMB      22              0.0000000000
      2828        22  POPC      H15A          -10.7748681973       25.3841315994       19.8081343975  MEMB      22              0.0000000000
      2829        22  POPC      H15B           -9.9201737254       24.2314490150       20.9228791118  MEMB      22              0.0000000000
      2830        22  POPC      H15C          -11.6002455870       24.8172774144       21.1916293784  MEMB      22              0.0000000000
      2831        22  POPC      C11            -9.0500364310       23.0251020951       18.4316280830  MEMB      22              0.0000000000
      2832        22  POPC      H11A           -8.6382714832       23.9729223253       18.8395586807  MEMB      22              0.0000000000
      2833        22  POPC      H11B           -8.5421736334       22.8168455782       17.4656956161  MEMB      22              0.0000000000
      2834        22  POPC      P              -8.3727530855       20.3911967204       18.5945203946  MEMB      22              0.0000000000
      2835        22  POPC      O13            -9.5230851525       19.9808676494       17.7413106374  MEMB      22              0.0000000000
      2836        22  POPC      O14            -8.0149348021       19.5579166518       19.7373161386  MEMB      22              0.0000000000
      2837        22  POPC      O12            -8.7515995175       21.9138192554       19.2455437603  MEMB      22              0.0000000000
      2838        22  POPC      O11            -7.1839705156       20.6246162053       17.6180668104  MEMB      22              0.0000000000
      2839        22  POPC      C1             -6.9463709321       19.4172480283       16.7559458146  MEMB      22              0.0000000000
      2840        22  POPC      HA             -7.7822925480       19.2965801160       16.0341459784  MEMB      22              0.0000000000
      2841        22  POPC      HB             -6.8188331365       18.4829388372       17.3434160301  MEMB      22              0.0000000000
      2842        22  POPC      C2             -5.6689761023       19.7428875584       15.9207697771  MEMB      22              0.0000000000
      2843        22  POPC      HS             -4.7739503486       19.7925555549       16.5771103936  MEMB      22              0.0000000000
      2844        22  POPC      O21            -5.8654500005       21.0258379372       15.2838639228  MEMB      22              0.0000000000
      2845        22  POPC      C21            -5.1042370878       21.4168970613       14.2636523210  MEMB      22              0.0000000000
      2846        22  POPC      O22            -4.1387254554       20.8401624185       13.8509380781  MEMB      22              0.0000000000
      2847        22  POPC      C22            -5.7480315398       22.6185967754       13.4951849546  MEMB      22              0.0000000000
      2848        22  POPC      H2R            -5.1538128713       22.8154608979       12.5773236932  MEMB      22              0.0000000000
      2849        22  POPC      H2S            -5.5342101641       23.4545669028       14.1950103384  MEMB      22              0.0000000000
      2850        22  POPC      C3             -5.3991860976       18.5404771299       14.9364257421  MEMB      22              0.0000000000
      2851        22  POPC      HX             -5.1850318531       17.6102281902       15.5048409622  MEMB      22              0.0000000000
      2852        22  POPC      HY             -4.6326858182       18.5850365755       14.1334233910  MEMB      22              0.0000000000
      2853        22  POPC      O31            -6.5907412571       18.2468608638       14.2504496195  MEMB      22              0.0000000000
      2854        22  POPC      C31            -6.7286881773       18.4021229610       12.8773756772  MEMB      22              0.0000000000
      2855        22  POPC      O32            -5.9046705685       18.7703237532       12.1061380962  MEMB      22              0.0000000000
      2856        22  POPC      C32            -8.1361817535       17.9038978652       12.4436375938  MEMB      22              0.0000000000
      2857        22  POPC      H2X            -8.8861501917       18.2483979755       13.1874037281  MEMB      22              0.0000000000
      2858        22  POPC      H2Y            -8.0017935837       16.8029843393       12.5088293963  MEMB      22              0.0000000000
      2859        22  POPC      C23            -7.2837004539       22.4461744373       13.2051440700  MEMB      22              0.0000000000
      2860        22  POPC      H3R            -7.7631520771       22.7461578729       14.1614167746  MEMB      22              0.0000000000
      2861        22  POPC      H3S            -7.4376995914       21.3487630198       13.1258133129  MEMB      22              0.0000000000
      2862        22  POPC      C24            -7.8258966871       23.1501307749       12.0430152569  MEMB      22              0.0000000000
      2863        22  POPC      H4R            -7.1887399821       22.9409247970       11.1572470924  MEMB      22              0.0000000000
      2864        22  POPC      H4S            -7.6690933779       24.2498198682       12.0225839213  MEMB      22              0.0000000000
      2865        22  POPC      C25            -9.2760478852       22.7885878785       11.8721105716  MEMB      22              0.0000000000
      2866        22  POPC      H5R            -9.9179636254       23.2451882178       12.6555528997  MEMB      22              0.0000000000
      2867        22  POPC      H5S            -9.4116644702       21.6877365259       11.9357935640  MEMB      22              0.0000000000
      2868        22  POPC      C26            -9.7902543335       23.1763391586       10.4122605785  MEMB      22              0.0000000000
      2869        22  POPC      H6R            -9.1774207062       22.5905322151        9.6942176577  MEMB      22              0.0000000000
      2870        22  POPC      H6S            -9.6130747464       24.2552056515       10.2148381354  MEMB      22              0.0000000000
      2871        22  POPC      C27           -11.2273003770       22.8818107806       10.3272728073  MEMB      22              0.0000000000
      2872        22  POPC      H7R           -11.7824268134       23.3508407133       11.1676100438  MEMB      22              0.0000000000
      2873        22  POPC      H7S           -11.3470664857       21.7781739377       10.2829699200  MEMB      22              0.0000000000
      2874        22  POPC      C28           -11.7221442161       23.4383336012        8.9571591658  MEMB      22              0.0000000000
      2875        22  POPC      H8R           -11.0509855251       23.2101475587        8.1017073087  MEMB      22              0.0000000000
      2876        22  POPC      H8S           -11.7948329103       24.5370185856        9.1052432846  MEMB      22              0.0000000000
      2877        22  POPC      C29           -13.1096208512       22.8490024547        8.8662402611  MEMB      22              0.0000000000
      2878        22  POPC      H91           -13.9297827756       23.3910174629        9.3597518787  MEMB      22              0.0000000000
      2879        22  POPC      C210          -13.3003606106       21.7442877850        8.1541040550  MEMB      22              0.0000000000
      2880        22  POPC      H101          -14.2999988749       21.2896001163        8.2172082253  MEMB      22              0.0000000000
      2881        22  POPC      C211          -12.3569744971       20.9050869614        7.3372830150  MEMB      22              0.0000000000
      2882        22  POPC      H11R          -12.2995042135       19.8148273636        7.5430801183  MEMB      22              0.0000000000
      2883        22  POPC      H11S          -11.2899882880       21.1780690177        7.4833740175  MEMB      22              0.0000000000
      2884        22  POPC      C212          -12.7447140153       21.0307522335        5.9092395330  MEMB      22              0.0000000000
      2885        22  POPC      H12R          -12.3763599520       22.0284341435        5.5878876619  MEMB      22              0.0000000000
      2886        22  POPC      H12S          -13.8338287966       20.9557910399        5.7030086037  MEMB      22              0.0000000000
      2887        22  POPC      C213          -11.9634914313       19.9881164118        5.0054481283  MEMB      22              0.0000000000
      2888        22  POPC      H13R          -12.2947647296       19.0863205419        5.5634287621  MEMB      22              0.0000000000
      2889        22  POPC      H13S          -10.8591568304       20.0708375279        5.0944620581  MEMB      22              0.0000000000
      2890        22  POPC      C214          -12.3176208812       20.1702565046        3.5376374528  MEMB      22              0.0000000000
      2891        22  POPC      H14R          -13.4158846608       20.0365072972        3.4363989226  MEMB      22              0.0000000000
      2892        22  POPC      H14S          -11.9603643139       19.2181407297        3.0902391403  MEMB      22              0.0000000000
      2893        22  POPC      C215          -11.7891546913       21.4164304867        2.9307411298  MEMB      22              0.0000000000
      2894        22  POPC      H15R          -10.7213603672       21.4570415334        3.2348579902  MEMB      22              0.0000000000
      2895        22  POPC      H15S          -12.2707043788       22.3492008804        3.2945677598  MEMB      22              0.0000000000
      2896        22  POPC      C216          -11.8798972315       21.3818356599        1.3869255296  MEMB      22              0.0000000000
      2897        22  POPC      H16R          -12.9499134943       21.4047719238        1.0888324080  MEMB      22              0.0000000000
      2898        22  POPC      H16S          -11.5430591756       20.4139130653        0.9579897020  MEMB      22              0.0000000000
      2899        22  POPC      C217          -11.2811973415       22.6077159048        0.6923721201  MEMB      22              0.0000000000
      2900        22  POPC      H17R          -10.2051926310       22.7859632751        0.9039437435  MEMB      22              0.0000000000
      2901        22  POPC      H17S          -11.7932696922       23.5290196250        1.0435156899  MEMB      22              0.0000000000
      2902        22  POPC      C218          -11.4638407223       22.4533119150       -0.7926444016  MEMB      22              0.0000000000
      2903        22  POPC      H18R          -11.2449081957       23.3627707446       -1.3920392274  MEMB      22              0.0000000000
      2904        22  POPC      H18S          -12.5395492843       22.2335492713       -0.9625746221  MEMB      22              0.0000000000
      2905        22  POPC      H18T          -10.8996174930       21.5754856366       -1.1739490700  MEMB      22              0.0000000000
      2906        22  POPC      C33            -8.4588075375       18.2190550158       10.9488595829  MEMB      22              0.0000000000
      2907        22  POPC      H3X            -7.9950013556       19.2111543240       10.7619268316  MEMB      22              0.0000000000
      2908        22  POPC      H3Y            -9.5528476288       18.3610446316       10.8175731336  MEMB      22              0.0000000000
      2909        22  POPC      C34            -7.8992017618       17.2397217444        9.8413613601  MEMB      22              0.0000000000
      2910        22  POPC      H4X            -8.3104365911       16.2387012837       10.0926873530  MEMB      22              0.0000000000
      2911        22  POPC      H4Y            -6.7899307290       17.1846421359        9.8697339818  MEMB      22              0.0000000000
      2912        22  POPC      C35            -8.3008670297       17.6899708805        8.3775386871  MEMB      22              0.0000000000
      2913        22  POPC      H5X            -9.3581754105       17.3921319666        8.2110693345  MEMB      22              0.0000000000
      2914        22  POPC      H5Y            -7.7591120871       17.0512156109        7.6475964416  MEMB      22              0.0000000000
      2915        22  POPC      C36            -8.1353987101       19.1903514488        8.0254815890  MEMB      22              0.0000000000
      2916        22  POPC      H6X            -8.6575292727       19.8246190819        8.7734153617  MEMB      22              0.0000000000
      2917        22  POPC      H6Y            -8.7631971093       19.3842690248        7.1296091111  MEMB      22              0.0000000000
      2918        22  POPC      C37            -6.6691284507       19.5761910797        7.9624566588  MEMB      22              0.0000000000
      2919        22  POPC      H7X            -6.1298453108       19.0157675159        7.1690971218  MEMB      22              0.0000000000
      2920        22  POPC      H7Y            -6.2444499144       19.2471834329        8.9349392308  MEMB      22              0.0000000000
      2921        22  POPC      C38            -6.4276987437       21.0967670899        7.6491633765  MEMB      22              0.0000000000
      2922        22  POPC      H8X            -5.3331940972       21.2407969467        7.5241179988  MEMB      22              0.0000000000
      2923        22  POPC      H8Y            -6.7723035983       21.6736788974        8.5338895056  MEMB      22              0.0000000000
      2924        22  POPC      C39            -7.0896605114       21.8431265316        6.4921394856  MEMB      22              0.0000000000
      2925        22  POPC      H9X            -6.8004444931       22.9157079311        6.4765077887  MEMB      22              0.0000000000
      2926        22  POPC      H9Y            -8.1908872835       21.7516065796        6.6072253769  MEMB      22              0.0000000000
      2927        22  POPC      C310           -6.6225475601       21.2326632239        5.0839214839  MEMB      22              0.0000000000
      2928        22  POPC      H10X           -6.5894484202       20.1381308023        5.2716029193  MEMB      22              0.0000000000
      2929        22  POPC      H10Y           -5.5853090290       21.6078691420        4.9509622071  MEMB      22              0.0000000000
      2930        22  POPC      C311           -7.5061685600       21.4615911744        3.8985179205  MEMB      22              0.0000000000
      2931        22  POPC      H11X           -7.6814664726       22.5581215588        3.9333421254  MEMB      22              0.0000000000
      2932        22  POPC      H11Y           -8.5300739108       21.0610872953        4.0583155421  MEMB      22              0.0000000000
      2933        22  POPC      C312           -6.9330904403       21.0033493382        2.5672945850  MEMB      22              0.0000000000
      2934        22  POPC      H12X           -7.8633551589       20.5910751487        2.1212476496  MEMB      22              0.0000000000
      2935        22  POPC      H12Y           -6.1708551667       20.2064194655        2.7022810800  MEMB      22              0.0000000000
      2936        22  POPC      C313           -6.3906869150       22.2582311660        1.7325853303  MEMB      22              0.0000000000
      2937        22  POPC      H13X           -5.2986363075       22.4224353874        1.8541720374  MEMB      22              0.0000000000
      2938        22  POPC      H13Y           -7.0596697118       23.0953399486        2.0258971169  MEMB      22              0.0000000000
      2939        22  POPC      C314           -6.5930390123       21.9835616012        0.2343694976  MEMB      22              0.0000000000
      2940        22  POPC      H14X           -7.3033511568       21.1308340188        0.1830527078  MEMB      22              0.0000000000
      2941        22  POPC      H14Y           -5.6019319075       21.6644885785       -0.1532121897  MEMB      22              0.0000000000
      2942        22  POPC      C315           -7.0803600687       23.2480118541       -0.5354652167  MEMB      22              0.0000000000
      2943        22  POPC      H15X           -6.5048690086       24.1274766084       -0.1753635164  MEMB      22              0.0000000000
      2944        22  POPC      H15Y           -8.1559067962       23.4116819074       -0.3102260596  MEMB      22              0.0000000000
      2945        22  POPC      C316           -6.9539056959       23.2461062434       -2.0716037429  MEMB      22              0.0000000000
      2946        22  POPC      H16X           -7.5129479901       22.3880116602       -2.5022627516  MEMB      22              0.0000000000
      2947        22  POPC      H16Y           -5.8835218220       23.2211556418       -2.3682130139  MEMB      22              0.0000000000
      2948        22  POPC      H16Z           -7.3486303215       24.2504338646       -2.3358763947  MEMB      22              0.0000000000
      2949        23  POPC      N              13.3475123203      -17.5744973550       17.6951785260  MEMB      23              0.0000000000
      2950        23  POPC      C12            14.2808178869      -16.3736768165       17.7744864125  MEMB      23              0.0000000000
      2951        23  POPC      H12A           13.5527690426      -15.5992660456       17.9658834241  MEMB      23              0.0000000000
      2952        23  POPC      H12B           14.8629562583      -16.3180675168       16.8665093518  MEMB      23              0.0000000000
      2953        23  POPC      C13            12.3502356267      -17.3711222869       16.6261635290  MEMB      23              0.0000000000
      2954        23  POPC      H13A           12.8987882022      -17.5016542070       15.7050492086  MEMB      23              0.0000000000
      2955        23  POPC      H13B           11.6347215634      -18.1800867572       16.6301449039  MEMB      23              0.0000000000
      2956        23  POPC      H13C           11.7667521146      -16.4639385541       16.6806095904  MEMB      23              0.0000000000
      2957        23  POPC      C14            14.0198572032      -18.8647860634       17.4951426313  MEMB      23              0.0000000000
      2958        23  POPC      H14A           13.3272800282      -19.6179260855       17.1494300154  MEMB      23              0.0000000000
      2959        23  POPC      H14B           14.7837180738      -18.7613967905       16.7386855452  MEMB      23              0.0000000000
      2960        23  POPC      H14C           14.5019582841      -19.1138488867       18.4289232875  MEMB      23              0.0000000000
      2961        23  POPC      C15            12.6416946265      -17.6320629340       18.9978252736  MEMB      23              0.0000000000
      2962        23  POPC      H15A           12.2349018067      -16.6591644894       19.2310376208  MEMB      23              0.0000000000
      2963        23  POPC      H15B           13.3742158112      -17.7354477756       19.7846698006  MEMB      23              0.0000000000
      2964        23  POPC      H15C           11.8916314653      -18.4057997275       18.9261542366  MEMB      23              0.0000000000
      2965        23  POPC      C11            15.3563940383      -16.4260750355       18.9130311217  MEMB      23              0.0000000000
      2966        23  POPC      H11A           14.7358545567      -16.2133035257       19.8096804087  MEMB      23              0.0000000000
      2967        23  POPC      H11B           15.9498980623      -15.4869400768       18.9230109438  MEMB      23              0.0000000000
      2968        23  POPC      P              16.5072180544      -18.0858072658       20.3712487186  MEMB      23              0.0000000000
      2969        23  POPC      O13            15.2045933435      -18.5756078815       20.9625400824  MEMB      23              0.0000000000
      2970        23  POPC      O14            17.3014743921      -17.0157938974       21.0874602635  MEMB      23              0.0000000000
      2971        23  POPC      O12            16.1836506779      -17.5311832653       18.9192651777  MEMB      23              0.0000000000
      2972        23  POPC      O11            17.6021586500      -19.2458649969       20.1576583114  MEMB      23              0.0000000000
      2973        23  POPC      C1             17.4021668416      -20.1816511969       19.1314487376  MEMB      23              0.0000000000
      2974        23  POPC      HA             16.3356669700      -20.3369127782       18.8616470519  MEMB      23              0.0000000000
      2975        23  POPC      HB             17.6828606736      -21.1555466503       19.5864873144  MEMB      23              0.0000000000
      2976        23  POPC      C2             18.3604019539      -19.7496897358       17.9664050212  MEMB      23              0.0000000000
      2977        23  POPC      HS             19.4107020375      -19.6644641103       18.3184374963  MEMB      23              0.0000000000
      2978        23  POPC      O21            18.0683937714      -18.4992968287       17.4977127574  MEMB      23              0.0000000000
      2979        23  POPC      C21            18.6413276770      -18.0582414404       16.3677522384  MEMB      23              0.0000000000
      2980        23  POPC      O22            19.6517706942      -18.5523613997       15.8216724497  MEMB      23              0.0000000000
      2981        23  POPC      C22            17.9813484715      -16.7325053509       15.9979505241  MEMB      23              0.0000000000
      2982        23  POPC      H2R            18.4654783479      -15.9845036914       16.6616012629  MEMB      23              0.0000000000
      2983        23  POPC      H2S            16.9125910191      -16.8394830866       16.2819121316  MEMB      23              0.0000000000
      2984        23  POPC      C3             18.2048240643      -20.8854275925       16.8920873157  MEMB      23              0.0000000000
      2985        23  POPC      HX             18.4513221094      -21.8626513932       17.3596276538  MEMB      23              0.0000000000
      2986        23  POPC      HY             18.9339188478      -20.6922008430       16.0763637380  MEMB      23              0.0000000000
      2987        23  POPC      O31            16.9659635147      -20.9160738623       16.2807029008  MEMB      23              0.0000000000
      2988        23  POPC      C31            16.6609728381      -20.8133491474       14.9854378958  MEMB      23              0.0000000000
      2989        23  POPC      O32            17.4465352864      -20.5701423658       14.1014599828  MEMB      23              0.0000000000
      2990        23  POPC      C32            15.1095053276      -20.9836931297       14.7252060965  MEMB      23              0.0000000000
      2991        23  POPC      H2X            14.5728653156      -21.1419323840       15.6850491613  MEMB      23              0.0000000000
      2992        23  POPC      H2Y            15.0626936011      -21.9797790721       14.2353668653  MEMB      23              0.0000000000
      2993        23  POPC      C23            18.2279789160      -16.4590723446       14.4748675654  MEMB      23              0.0000000000
      2994        23  POPC      H3R            19.2682058698      -16.6580024068       14.1391950445  MEMB      23              0.0000000000
      2995        23  POPC      H3S            18.0049251522      -15.3861140396       14.2923074741  MEMB      23              0.0000000000
      2996        23  POPC      C24            17.2515521795      -17.2152296188       13.4859721777  MEMB      23              0.0000000000
      2997        23  POPC      H4R            16.3001582082      -17.3607883656       14.0409346962  MEMB      23              0.0000000000
      2998        23  POPC      H4S            17.6401808786      -18.2384566938       13.2954598711  MEMB      23              0.0000000000
      2999        23  POPC      C25            17.0344519455      -16.3799028125       12.1991247296  MEMB      23              0.0000000000
      3000        23  POPC      H5R            17.7884159161      -16.8554391014       11.5360079477  MEMB      23              0.0000000000
      3001        23  POPC      H5S            17.3902842009      -15.3297099940       12.2684006260  MEMB      23              0.0000000000
      3002        23  POPC      C26            15.6800305021      -16.5846400489       11.4570720600  MEMB      23              0.0000000000
      3003        23  POPC      H6R            15.2812320750      -17.6206426264       11.5015632687  MEMB      23              0.0000000000
      3004        23  POPC      H6S            15.7610890431      -16.3098087424       10.3836574014  MEMB      23              0.0000000000
      3005        23  POPC      C27            14.7930240197      -15.4977127725       12.0527994011  MEMB      23              0.0000000000
      3006        23  POPC      H7R            15.4948559759      -14.6378719550       12.0035395117  MEMB      23              0.0000000000
      3007        23  POPC      H7S            14.5806573158      -15.7776171407       13.1067800190  MEMB      23              0.0000000000
      3008        23  POPC      C28            13.5992602881      -15.0152544149       11.2448531481  MEMB      23              0.0000000000
      3009        23  POPC      H8R            13.9715576283      -14.8030673168       10.2198205809  MEMB      23              0.0000000000
      3010        23  POPC      H8S            13.3601858860      -14.0449260948       11.7302681749  MEMB      23              0.0000000000
      3011        23  POPC      C29            12.5948697445      -16.1331071900       11.4122405869  MEMB      23              0.0000000000
      3012        23  POPC      H91            12.4050107523      -16.4646020657       12.4437754838  MEMB      23              0.0000000000
      3013        23  POPC      C210           11.8855754421      -16.7432728668       10.4973822545  MEMB      23              0.0000000000
      3014        23  POPC      H101           11.3327931921      -17.6648380191       10.7322208151  MEMB      23              0.0000000000
      3015        23  POPC      C211           11.9640906585      -16.4344636713        8.9609873457  MEMB      23              0.0000000000
      3016        23  POPC      H11R           12.3049202665      -15.3998697175        8.7424198971  MEMB      23              0.0000000000
      3017        23  POPC      H11S           10.8844597251      -16.6030412383        8.7602395274  MEMB      23              0.0000000000
      3018        23  POPC      C212           12.8507018952      -17.4951948912        8.2839293680  MEMB      23              0.0000000000
      3019        23  POPC      H12R           12.5844088433      -18.5064160334        8.6592166715  MEMB      23              0.0000000000
      3020        23  POPC      H12S           13.8660919346      -17.0933941838        8.4885273618  MEMB      23              0.0000000000
      3021        23  POPC      C213           12.6436664231      -17.4998108175        6.7502045637  MEMB      23              0.0000000000
      3022        23  POPC      H13R           12.7282862251      -16.4588279985        6.3713708994  MEMB      23              0.0000000000
      3023        23  POPC      H13S           11.6624345104      -17.9332589588        6.4610200222  MEMB      23              0.0000000000
      3024        23  POPC      C214           13.7081670828      -18.2946793816        6.0607824227  MEMB      23              0.0000000000
      3025        23  POPC      H14R           13.6188518995      -19.4015830730        6.0940730355  MEMB      23              0.0000000000
      3026        23  POPC      H14S           14.6918333336      -18.1465940315        6.5555479677  MEMB      23              0.0000000000
      3027        23  POPC      C215           13.9170375626      -17.8877077563        4.5874609093  MEMB      23              0.0000000000
      3028        23  POPC      H15R           12.8734022678      -17.9124562713        4.2072852170  MEMB      23              0.0000000000
      3029        23  POPC      H15S           14.4625780820      -18.6390861066        3.9774298895  MEMB      23              0.0000000000
      3030        23  POPC      C216           14.5926554811      -16.5715529890        4.2208131162  MEMB      23              0.0000000000
      3031        23  POPC      H16R           15.5964078243      -16.5658203521        4.6970157750  MEMB      23              0.0000000000
      3032        23  POPC      H16S           14.0660799297      -15.6871209833        4.6389272613  MEMB      23              0.0000000000
      3033        23  POPC      C217           14.6808811823      -16.3814048115        2.7227692244  MEMB      23              0.0000000000
      3034        23  POPC      H17R           13.6326013546      -16.3867324908        2.3547994301  MEMB      23              0.0000000000
      3035        23  POPC      H17S           15.3570922992      -17.1342610297        2.2642198431  MEMB      23              0.0000000000
      3036        23  POPC      C218           15.2613511014      -15.0131350837        2.3580757097  MEMB      23              0.0000000000
      3037        23  POPC      H18R           15.5771622360      -14.9808528157        1.2933980068  MEMB      23              0.0000000000
      3038        23  POPC      H18S           16.1297642666      -14.6904437495        2.9713060489  MEMB      23              0.0000000000
      3039        23  POPC      H18T           14.5296320782      -14.2086082574        2.5853327733  MEMB      23              0.0000000000
      3040        23  POPC      C33            14.4299394272      -19.8535713407       13.8988954636  MEMB      23              0.0000000000
      3041        23  POPC      H3X            15.1491803392      -19.3557732850       13.2139059846  MEMB      23              0.0000000000
      3042        23  POPC      H3Y            14.1555041109      -19.0995231106       14.6672817502  MEMB      23              0.0000000000
      3043        23  POPC      C34            13.1080511731      -20.3478116116       13.2458175982  MEMB      23              0.0000000000
      3044        23  POPC      H4X            12.4970709852      -19.4524435376       13.0022194272  MEMB      23              0.0000000000
      3045        23  POPC      H4Y            12.4994437016      -20.8523371632       14.0264407249  MEMB      23              0.0000000000
      3046        23  POPC      C35            13.2623119423      -21.3592416823       12.0861063703  MEMB      23              0.0000000000
      3047        23  POPC      H5X            12.2529293654      -21.7609842305       11.8535768413  MEMB      23              0.0000000000
      3048        23  POPC      H5Y            13.8471781813      -22.2799918760       12.2969885840  MEMB      23              0.0000000000
      3049        23  POPC      C36            13.9174538931      -20.7641141807       10.8348746614  MEMB      23              0.0000000000
      3050        23  POPC      H6X            14.9475087735      -20.3931173520       11.0237385736  MEMB      23              0.0000000000
      3051        23  POPC      H6Y            13.1987685140      -19.9761586392       10.5235246674  MEMB      23              0.0000000000
      3052        23  POPC      C37            13.9917277118      -21.7724690852        9.6694963913  MEMB      23              0.0000000000
      3053        23  POPC      H7X            13.0183831909      -22.2873369229        9.5217387320  MEMB      23              0.0000000000
      3054        23  POPC      H7Y            14.6290171970      -22.6188256431       10.0039566018  MEMB      23              0.0000000000
      3055        23  POPC      C38            14.5319839210      -21.2208391077        8.3163313616  MEMB      23              0.0000000000
      3056        23  POPC      H8X            13.6739540155      -20.7083431757        7.8310955240  MEMB      23              0.0000000000
      3057        23  POPC      H8Y            14.6888262733      -22.1727236903        7.7652985407  MEMB      23              0.0000000000
      3058        23  POPC      C39            15.8407591533      -20.4238454983        8.4146473388  MEMB      23              0.0000000000
      3059        23  POPC      H9X            16.4008064395      -20.7794946842        9.3058167935  MEMB      23              0.0000000000
      3060        23  POPC      H9Y            15.5972024558      -19.3569880556        8.6065235783  MEMB      23              0.0000000000
      3061        23  POPC      C310           16.7118789256      -20.5236366839        7.1345435615  MEMB      23              0.0000000000
      3062        23  POPC      H10X           16.1226542370      -20.2362803947        6.2375697851  MEMB      23              0.0000000000
      3063        23  POPC      H10Y           16.9537409906      -21.6030490448        7.0311381340  MEMB      23              0.0000000000
      3064        23  POPC      C311           18.0078622803      -19.8074226406        7.3776198440  MEMB      23              0.0000000000
      3065        23  POPC      H11X           18.6398435845      -20.4573030925        8.0199408422  MEMB      23              0.0000000000
      3066        23  POPC      H11Y           17.8344364140      -18.7692838877        7.7333056982  MEMB      23              0.0000000000
      3067        23  POPC      C312           18.8554731476      -19.5827268797        6.0459231566  MEMB      23              0.0000000000
      3068        23  POPC      H12X           18.8196537451      -20.4792258136        5.3906915842  MEMB      23              0.0000000000
      3069        23  POPC      H12Y           19.9154863343      -19.5590944367        6.3777880312  MEMB      23              0.0000000000
      3070        23  POPC      C313           18.3053314898      -18.2602873409        5.3708171200  MEMB      23              0.0000000000
      3071        23  POPC      H13X           18.4415068774      -17.3708319230        6.0224661784  MEMB      23              0.0000000000
      3072        23  POPC      H13Y           17.2439935734      -18.3812187884        5.0654348105  MEMB      23              0.0000000000
      3073        23  POPC      C314           19.0304735164      -17.9150285446        3.9886565079  MEMB      23              0.0000000000
      3074        23  POPC      H14X           18.9642136287      -18.7978768589        3.3174563417  MEMB      23              0.0000000000
      3075        23  POPC      H14Y           20.0868066864      -17.7658046049        4.2988398834  MEMB      23              0.0000000000
      3076        23  POPC      C315           18.5385220196      -16.6482511450        3.3781897330  MEMB      23              0.0000000000
      3077        23  POPC      H15X           18.6275698276      -15.8402889396        4.1355458538  MEMB      23              0.0000000000
      3078        23  POPC      H15Y           17.5251367072      -16.7746374803        2.9407001247  MEMB      23              0.0000000000
      3079        23  POPC      C316           19.3612085222      -16.1156453091        2.1378298073  MEMB      23              0.0000000000
      3080        23  POPC      H16X           19.4908549444      -16.8854494033        1.3473154793  MEMB      23              0.0000000000
      3081        23  POPC      H16Y           20.4094290345      -15.8865955826        2.4260844513  MEMB      23              0.0000000000
      3082        23  POPC      H16Z           18.8302895002      -15.2312015188        1.7252703834  MEMB      23              0.0000000000
      3083        24  POPC      N              15.0874864134       -2.2525633750       18.3476783835  MEMB      24              0.0000000000
      3084        24  POPC      C12            16.0578047685       -1.0997128376       18.4960754487  MEMB      24              0.0000000000
      3085        24  POPC      H12A           15.6393692856       -0.1261591046       18.2874977019  MEMB      24              0.0000000000
      3086        24  POPC      H12B           16.7167463504       -1.2432966471       17.6525236191  MEMB      24              0.0000000000
      3087        24  POPC      C13            14.2005361892       -2.4618251098       19.5631611756  MEMB      24              0.0000000000
      3088        24  POPC      H13A           13.3160793368       -1.8429831966       19.5289450217  MEMB      24              0.0000000000
      3089        24  POPC      H13B           13.7262432145       -3.4312885801       19.5233244260  MEMB      24              0.0000000000
      3090        24  POPC      H13C           14.7670777332       -2.3196650577       20.4715779440  MEMB      24              0.0000000000
      3091        24  POPC      C14            14.1201547031       -1.8655317152       17.2694192919  MEMB      24              0.0000000000
      3092        24  POPC      H14A           13.5290879148       -1.0033695767       17.5409269718  MEMB      24              0.0000000000
      3093        24  POPC      H14B           14.6234623943       -1.7004094241       16.3282413094  MEMB      24              0.0000000000
      3094        24  POPC      H14C           13.4503363083       -2.7122867041       17.2420506676  MEMB      24              0.0000000000
      3095        24  POPC      C15            15.8309415534       -3.5712002206       18.0996669735  MEMB      24              0.0000000000
      3096        24  POPC      H15A           16.4190129990       -3.5538548200       17.1939788188  MEMB      24              0.0000000000
      3097        24  POPC      H15B           15.0497717694       -4.3001424951       17.9421322435  MEMB      24              0.0000000000
      3098        24  POPC      H15C           16.2936343911       -3.8001094009       19.0483059272  MEMB      24              0.0000000000
      3099        24  POPC      C11            16.8485032107       -1.0929125445       19.8067367838  MEMB      24              0.0000000000
      3100        24  POPC      H11A           16.2797866281       -1.0284125173       20.7589563269  MEMB      24              0.0000000000
      3101        24  POPC      H11B           17.4873515811       -0.1942194864       19.9429154414  MEMB      24              0.0000000000
      3102        24  POPC      P              19.1791931140       -2.3257635076       19.5112772603  MEMB      24              0.0000000000
      3103        24  POPC      O13            19.6616624243       -3.7401882493       19.4709004155  MEMB      24              0.0000000000
      3104        24  POPC      O14            19.9350575389       -1.3689041593       20.3384011410  MEMB      24              0.0000000000
      3105        24  POPC      O12            17.6050184373       -2.2792122680       20.0045009201  MEMB      24              0.0000000000
      3106        24  POPC      O11            19.0979696861       -1.7424090620       18.0921822088  MEMB      24              0.0000000000
      3107        24  POPC      C1             20.2317422357       -1.3041474754       17.4320363823  MEMB      24              0.0000000000
      3108        24  POPC      HA             20.9330075002       -2.1598064235       17.3300771525  MEMB      24              0.0000000000
      3109        24  POPC      HB             20.7441009075       -0.4380114586       17.9027997485  MEMB      24              0.0000000000
      3110        24  POPC      C2             19.9436862662       -0.8330440968       16.0556242152  MEMB      24              0.0000000000
      3111        24  POPC      HS             20.8453480010       -0.3353622064       15.6389232047  MEMB      24              0.0000000000
      3112        24  POPC      O21            18.8359595327        0.0807468750       16.2275075002  MEMB      24              0.0000000000
      3113        24  POPC      C21            18.9796698217        1.2834639314       15.6378946889  MEMB      24              0.0000000000
      3114        24  POPC      O22            19.9140392051        1.6216537550       14.9473640598  MEMB      24              0.0000000000
      3115        24  POPC      C22            17.6869540095        2.1458917234       15.8370616687  MEMB      24              0.0000000000
      3116        24  POPC      H2R            17.9500833543        3.0599015213       16.4112312958  MEMB      24              0.0000000000
      3117        24  POPC      H2S            16.9850473305        1.4746707720       16.3766075725  MEMB      24              0.0000000000
      3118        24  POPC      C3             19.4516477544       -1.9648137414       15.0688817931  MEMB      24              0.0000000000
      3119        24  POPC      HX             18.6999099878       -2.5375009399       15.6530398115  MEMB      24              0.0000000000
      3120        24  POPC      HY             20.1893552085       -2.7797794144       14.9078236073  MEMB      24              0.0000000000
      3121        24  POPC      O31            18.9396674546       -1.4069338568       13.8461492159  MEMB      24              0.0000000000
      3122        24  POPC      C31            19.5846151470       -1.6060654689       12.6903887115  MEMB      24              0.0000000000
      3123        24  POPC      O32            20.7611774268       -2.0230531239       12.5882589305  MEMB      24              0.0000000000
      3124        24  POPC      C32            18.6543354518       -1.2893097321       11.5557814213  MEMB      24              0.0000000000
      3125        24  POPC      H2X            17.9817920274       -0.4356661086       11.7866468147  MEMB      24              0.0000000000
      3126        24  POPC      H2Y            17.9757853242       -2.1668309574       11.4937557095  MEMB      24              0.0000000000
      3127        24  POPC      C23            17.0549962683        2.5872607970       14.5215601006  MEMB      24              0.0000000000
      3128        24  POPC      H3R            17.7066171591        3.1521391376       13.8211148404  MEMB      24              0.0000000000
      3129        24  POPC      H3S            16.1401705487        3.1568060642       14.7918054099  MEMB      24              0.0000000000
      3130        24  POPC      C24            16.5152305446        1.3572569180       13.7031361579  MEMB      24              0.0000000000
      3131        24  POPC      H4R            15.6895503577        0.8590239213       14.2548035561  MEMB      24              0.0000000000
      3132        24  POPC      H4S            17.3806162848        0.6608666305       13.6814778426  MEMB      24              0.0000000000
      3133        24  POPC      C25            16.0899345912        1.6665231673       12.2626133503  MEMB      24              0.0000000000
      3134        24  POPC      H5R            15.1869219253        2.3010607184       12.3900934108  MEMB      24              0.0000000000
      3135        24  POPC      H5S            15.7896935028        0.7396240414       11.7287270604  MEMB      24              0.0000000000
      3136        24  POPC      C26            17.1116359993        2.4384890282       11.3228967197  MEMB      24              0.0000000000
      3137        24  POPC      H6R            18.1480842593        2.0539458198       11.2123399287  MEMB      24              0.0000000000
      3138        24  POPC      H6S            17.0515702174        3.4888910426       11.6797846830  MEMB      24              0.0000000000
      3139        24  POPC      C27            16.4808466482        2.4180750582        9.9066146265  MEMB      24              0.0000000000
      3140        24  POPC      H7R            15.5167513193        2.9604074977       10.0101352676  MEMB      24              0.0000000000
      3141        24  POPC      H7S            16.3822981799        1.3839745806        9.5126026665  MEMB      24              0.0000000000
      3142        24  POPC      C28            17.2979621350        3.2361848424        8.8039693628  MEMB      24              0.0000000000
      3143        24  POPC      H8R            17.6066049164        4.2303780914        9.1920947058  MEMB      24              0.0000000000
      3144        24  POPC      H8S            16.7869617184        3.6514256637        7.9091099128  MEMB      24              0.0000000000
      3145        24  POPC      C29            18.5638448909        2.3761874123        8.5073679229  MEMB      24              0.0000000000
      3146        24  POPC      H91            19.3580197666        2.4392500495        9.2658590662  MEMB      24              0.0000000000
      3147        24  POPC      C210           18.9139176139        1.7705369654        7.3339583153  MEMB      24              0.0000000000
      3148        24  POPC      H101           19.8565633684        1.2468238160        7.1168336044  MEMB      24              0.0000000000
      3149        24  POPC      C211           18.0566865207        1.9054736461        6.1275113833  MEMB      24              0.0000000000
      3150        24  POPC      H11R           18.7169270107        2.0087908564        5.2399702202  MEMB      24              0.0000000000
      3151        24  POPC      H11S           17.3501427971        2.7557507770        6.2377186089  MEMB      24              0.0000000000
      3152        24  POPC      C212           17.2390595260        0.6309655045        5.8585120605  MEMB      24              0.0000000000
      3153        24  POPC      H12R           17.9759512768       -0.1972986034        5.9312441050  MEMB      24              0.0000000000
      3154        24  POPC      H12S           16.9001537574        0.5064530878        4.8078160739  MEMB      24              0.0000000000
      3155        24  POPC      C213           16.0471249338        0.3492078322        6.8195864423  MEMB      24              0.0000000000
      3156        24  POPC      H13R           15.1874511996        1.0474023232        6.9079408608  MEMB      24              0.0000000000
      3157        24  POPC      H13S           16.5581677488        0.4411034166        7.8017829523  MEMB      24              0.0000000000
      3158        24  POPC      C214           15.4777379526       -1.0627508678        6.7205209390  MEMB      24              0.0000000000
      3159        24  POPC      H14R           14.5871674073       -1.1998831134        7.3704439630  MEMB      24              0.0000000000
      3160        24  POPC      H14S           16.3432724334       -1.5779362791        7.1893013145  MEMB      24              0.0000000000
      3161        24  POPC      C215           15.1584081072       -1.5700228074        5.3379841465  MEMB      24              0.0000000000
      3162        24  POPC      H15R           14.8840875581       -2.6391248624        5.4648294749  MEMB      24              0.0000000000
      3163        24  POPC      H15S           16.1267638274       -1.6141303286        4.7951560224  MEMB      24              0.0000000000
      3164        24  POPC      C216           14.1482536409       -0.6974068790        4.5199161388  MEMB      24              0.0000000000
      3165        24  POPC      H16R           14.6296674699        0.2201996659        4.1192161346  MEMB      24              0.0000000000
      3166        24  POPC      H16S           13.2514976750       -0.5975851553        5.1681329727  MEMB      24              0.0000000000
      3167        24  POPC      C217           13.5122056391       -1.2700852661        3.1656909984  MEMB      24              0.0000000000
      3168        24  POPC      H17R           12.8118044181       -0.4891512858        2.7997658911  MEMB      24              0.0000000000
      3169        24  POPC      H17S           12.9711874132       -2.1725945265        3.5221970978  MEMB      24              0.0000000000
      3170        24  POPC      C218           14.5062780003       -1.5490814017        2.1014279371  MEMB      24              0.0000000000
      3171        24  POPC      H18R           14.0638675588       -2.1630952591        1.2880503862  MEMB      24              0.0000000000
      3172        24  POPC      H18S           15.4547712840       -2.0116236939        2.4488973193  MEMB      24              0.0000000000
      3173        24  POPC      H18T           14.7889923441       -0.6620167771        1.4952003718  MEMB      24              0.0000000000
      3174        24  POPC      C33            19.4189611304       -1.0637217593       10.2207792627  MEMB      24              0.0000000000
      3175        24  POPC      H3X            20.3123557850       -0.4184637422       10.3615236224  MEMB      24              0.0000000000
      3176        24  POPC      H3Y            18.6904435054       -0.6056371582        9.5181114027  MEMB      24              0.0000000000
      3177        24  POPC      C34            19.6771076883       -2.4435383279        9.5760868495  MEMB      24              0.0000000000
      3178        24  POPC      H4X            18.6854335749       -2.9328924003        9.4691474884  MEMB      24              0.0000000000
      3179        24  POPC      H4Y            20.2773339974       -3.1093398959       10.2324079424  MEMB      24              0.0000000000
      3180        24  POPC      C35            20.2923046382       -2.2655331163        8.1650935535  MEMB      24              0.0000000000
      3181        24  POPC      H5X            19.7226823374       -1.4392844580        7.6884749696  MEMB      24              0.0000000000
      3182        24  POPC      H5Y            20.0126651732       -3.2115677432        7.6540739554  MEMB      24              0.0000000000
      3183        24  POPC      C36            21.7550453537       -2.0074390378        7.9426928132  MEMB      24              0.0000000000
      3184        24  POPC      H6X            22.1705169786       -3.0027283415        8.2093449520  MEMB      24              0.0000000000
      3185        24  POPC      H6Y            22.0328845853       -1.2076528316        8.6620455818  MEMB      24              0.0000000000
      3186        24  POPC      C37            22.1993856875       -1.5812624267        6.4916190996  MEMB      24              0.0000000000
      3187        24  POPC      H7X            23.2940100914       -1.3953179428        6.5309069705  MEMB      24              0.0000000000
      3188        24  POPC      H7Y            21.5799776081       -0.7005200143        6.2178539428  MEMB      24              0.0000000000
      3189        24  POPC      C38            22.0171705074       -2.6841107877        5.4318668262  MEMB      24              0.0000000000
      3190        24  POPC      H8X            20.9653345486       -3.0336989980        5.3560356343  MEMB      24              0.0000000000
      3191        24  POPC      H8Y            22.5891741576       -3.6072941827        5.6661006891  MEMB      24              0.0000000000
      3192        24  POPC      C39            22.4075373222       -2.2298843914        3.9826075044  MEMB      24              0.0000000000
      3193        24  POPC      H9X            22.3097553480       -2.9868613688        3.1752996348  MEMB      24              0.0000000000
      3194        24  POPC      H9Y            23.4884995745       -1.9981084823        4.0927038679  MEMB      24              0.0000000000
      3195        24  POPC      C310           21.7109509624       -0.9920789654        3.4337518402  MEMB      24              0.0000000000
      3196        24  POPC      H10X           21.9447164340       -0.7497299384        2.3750055205  MEMB      24              0.0000000000
      3197        24  POPC      H10Y           22.1809562997       -0.1011396727        3.9024123075  MEMB      24              0.0000000000
      3198        24  POPC      C311           20.1619841486       -0.9109309031        3.6134692920  MEMB      24              0.0000000000
      3199        24  POPC      H11X           19.8414267624        0.0869220341        3.2448853699  MEMB      24              0.0000000000
      3200        24  POPC      H11Y           20.0561447968       -0.8875362913        4.7191687987  MEMB      24              0.0000000000
      3201        24  POPC      C312           19.3771696813       -2.0081505979        2.8921623017  MEMB      24              0.0000000000
      3202        24  POPC      H12X           18.3767774800       -2.1358565461        3.3582392838  MEMB      24              0.0000000000
      3203        24  POPC      H12Y           19.7936655783       -3.0365309456        2.9494856745  MEMB      24              0.0000000000
      3204        24  POPC      C313           19.1436667829       -1.7226409338        1.3653725467  MEMB      24              0.0000000000
      3205        24  POPC      H13X           20.1029078158       -1.4371985309        0.8829830297  MEMB      24              0.0000000000
      3206        24  POPC      H13Y           18.4195786076       -0.9009056153        1.1789095881  MEMB      24              0.0000000000
      3207        24  POPC      C314           18.6124862635       -3.0408147162        0.7204015190  MEMB      24              0.0000000000
      3208        24  POPC      H14X           17.6307234926       -3.2323094874        1.2039227305  MEMB      24              0.0000000000
      3209        24  POPC      H14Y           19.2443549191       -3.9264118662        0.9457458605  MEMB      24              0.0000000000
      3210        24  POPC      C315           18.5155836434       -2.9557430278       -0.8036028474  MEMB      24              0.0000000000
      3211        24  POPC      H15X           19.5362598822       -2.9152818510       -1.2405272286  MEMB      24              0.0000000000
      3212        24  POPC      H15Y           17.9596510481       -2.0182099438       -1.0187582414  MEMB      24              0.0000000000
      3213        24  POPC      C316           17.7907644627       -4.0696243353       -1.5406934992  MEMB      24              0.0000000000
      3214        24  POPC      H16X           16.7481925711       -4.2766098146       -1.2173951594  MEMB      24              0.0000000000
      3215        24  POPC      H16Y           18.2821148375       -5.0493565130       -1.3589803481  MEMB      24              0.0000000000
      3216        24  POPC      H16Z           17.8005630921       -3.8830117836       -2.6358659802  MEMB      24              0.0000000000
      3217        25  POPC      N             -22.8066939392      -10.4985139200       20.6782689932  MEMB      25              0.0000000000
      3218        25  POPC      C12           -23.8965198360       -9.3927578983       20.5058695908  MEMB      25              0.0000000000
      3219        25  POPC      H12A          -24.0326648969       -9.0269087500       21.5128545482  MEMB      25              0.0000000000
      3220        25  POPC      H12B          -24.7281935914       -9.8374710209       19.9796100741  MEMB      25              0.0000000000
      3221        25  POPC      C13           -21.4499915722       -9.8576254975       21.0669469138  MEMB      25              0.0000000000
      3222        25  POPC      H13A          -21.5885806580       -9.2586912048       21.9549056660  MEMB      25              0.0000000000
      3223        25  POPC      H13B          -20.6762220536      -10.5638427448       21.3295075155  MEMB      25              0.0000000000
      3224        25  POPC      H13C          -21.1894444998       -9.1322457372       20.3104157878  MEMB      25              0.0000000000
      3225        25  POPC      C14           -23.1623690593      -11.4371908685       21.7686603178  MEMB      25              0.0000000000
      3226        25  POPC      H14A          -23.9336955555      -12.0921520601       21.3911931660  MEMB      25              0.0000000000
      3227        25  POPC      H14B          -22.3679221605      -12.0543455451       22.1615651521  MEMB      25              0.0000000000
      3228        25  POPC      H14C          -23.6223577377      -10.9505292177       22.6159918854  MEMB      25              0.0000000000
      3229        25  POPC      C15           -22.6971093400      -11.2930008026       19.3764360443  MEMB      25              0.0000000000
      3230        25  POPC      H15A          -22.5775942776      -10.5267187391       18.6248192017  MEMB      25              0.0000000000
      3231        25  POPC      H15B          -23.6612442459      -11.6927397038       19.0988526616  MEMB      25              0.0000000000
      3232        25  POPC      H15C          -21.9959141145      -12.1084158905       19.2773227636  MEMB      25              0.0000000000
      3233        25  POPC      C11           -23.5320243167       -8.2061332880       19.6145515714  MEMB      25              0.0000000000
      3234        25  POPC      H11A          -22.8413809047       -7.4794970996       20.0934383446  MEMB      25              0.0000000000
      3235        25  POPC      H11B          -24.5274972539       -7.7690747810       19.3857842549  MEMB      25              0.0000000000
      3236        25  POPC      P             -22.8304763376       -7.6285408027       17.1812224534  MEMB      25              0.0000000000
      3237        25  POPC      O13           -22.0736664333       -8.2271820152       16.0756336238  MEMB      25              0.0000000000
      3238        25  POPC      O14           -22.1832220692       -6.4661746787       17.8605248473  MEMB      25              0.0000000000
      3239        25  POPC      O12           -23.0723070447       -8.6487899263       18.3039446462  MEMB      25              0.0000000000
      3240        25  POPC      O11           -24.2268303457       -7.1223351798       16.5679410021  MEMB      25              0.0000000000
      3241        25  POPC      C1            -25.2230482905       -8.1438441014       16.4982674161  MEMB      25              0.0000000000
      3242        25  POPC      HA            -25.5292782276       -8.3524414358       17.5456600075  MEMB      25              0.0000000000
      3243        25  POPC      HB            -24.8747631621       -9.0920338837       16.0357150475  MEMB      25              0.0000000000
      3244        25  POPC      C2            -26.3997299154       -7.6145515073       15.6346466813  MEMB      25              0.0000000000
      3245        25  POPC      HS            -27.1974521513       -8.3863152572       15.5862626410  MEMB      25              0.0000000000
      3246        25  POPC      O21           -25.9182948154       -7.4143359188       14.3584764597  MEMB      25              0.0000000000
      3247        25  POPC      C21           -25.7901834692       -8.4381864340       13.5286678852  MEMB      25              0.0000000000
      3248        25  POPC      O22           -25.9916354259       -9.6211457529       13.8243310354  MEMB      25              0.0000000000
      3249        25  POPC      C22           -25.2208244950       -7.9217460413       12.2614285506  MEMB      25              0.0000000000
      3250        25  POPC      H2R           -24.4094268809       -8.6267214904       11.9804222173  MEMB      25              0.0000000000
      3251        25  POPC      H2S           -24.7889695294       -6.8988747709       12.2219744975  MEMB      25              0.0000000000
      3252        25  POPC      C3            -26.9751391473       -6.3977085678       16.2767998641  MEMB      25              0.0000000000
      3253        25  POPC      HX            -26.9813121953       -6.5294063316       17.3799491919  MEMB      25              0.0000000000
      3254        25  POPC      HY            -28.0486800107       -6.2704950292       16.0205810266  MEMB      25              0.0000000000
      3255        25  POPC      O31           -26.1053492525       -5.2736757038       15.9991941220  MEMB      25              0.0000000000
      3256        25  POPC      C31           -26.4797562244       -4.3757991743       15.0981607762  MEMB      25              0.0000000000
      3257        25  POPC      O32           -27.6122483085       -4.3252559634       14.6541111232  MEMB      25              0.0000000000
      3258        25  POPC      C32           -25.3385283054       -3.4406460949       14.8521467691  MEMB      25              0.0000000000
      3259        25  POPC      H2X           -24.8767952312       -3.0758243382       15.7944996769  MEMB      25              0.0000000000
      3260        25  POPC      H2Y           -25.6658238679       -2.5521875792       14.2709064793  MEMB      25              0.0000000000
      3261        25  POPC      C23           -26.2202646353       -8.2560569598       11.0726732638  MEMB      25              0.0000000000
      3262        25  POPC      H3R           -26.5944133306       -9.2946334782       11.1979434248  MEMB      25              0.0000000000
      3263        25  POPC      H3S           -25.5491929832       -8.2181088511       10.1880582372  MEMB      25              0.0000000000
      3264        25  POPC      C24           -27.2728121314       -7.1859550368       10.9921016936  MEMB      25              0.0000000000
      3265        25  POPC      H4R           -26.9357886787       -6.1358224067       11.1261080159  MEMB      25              0.0000000000
      3266        25  POPC      H4S           -28.2009598333       -7.3207342164       11.5876661734  MEMB      25              0.0000000000
      3267        25  POPC      C25           -27.9760540406       -7.3145078784        9.5165578949  MEMB      25              0.0000000000
      3268        25  POPC      H5R           -28.4897543091       -8.2975443306        9.5803752244  MEMB      25              0.0000000000
      3269        25  POPC      H5S           -27.2170185716       -7.4307852131        8.7136471865  MEMB      25              0.0000000000
      3270        25  POPC      C26           -29.0457606394       -6.2656100771        9.0805676693  MEMB      25              0.0000000000
      3271        25  POPC      H6R           -28.5560467036       -5.2692999943        9.1237812411  MEMB      25              0.0000000000
      3272        25  POPC      H6S           -29.7853773072       -6.3918827628        9.8999226596  MEMB      25              0.0000000000
      3273        25  POPC      C27           -29.7217699045       -6.6183306024        7.7447370602  MEMB      25              0.0000000000
      3274        25  POPC      H7R           -30.5561670594       -5.8928710841        7.6360577681  MEMB      25              0.0000000000
      3275        25  POPC      H7S           -30.1862049521       -7.6016270220        7.9722211144  MEMB      25              0.0000000000
      3276        25  POPC      C28           -28.9313987657       -6.5250435743        6.4927608650  MEMB      25              0.0000000000
      3277        25  POPC      H8R           -29.5899012580       -6.9170202799        5.6883668108  MEMB      25              0.0000000000
      3278        25  POPC      H8S           -28.1450287208       -7.2988388094        6.6238480824  MEMB      25              0.0000000000
      3279        25  POPC      C29           -28.5548589251       -5.1595179297        6.0661612807  MEMB      25              0.0000000000
      3280        25  POPC      H91           -29.3641098791       -4.4737409085        6.3574047192  MEMB      25              0.0000000000
      3281        25  POPC      C210          -27.5502570012       -4.8368540408        5.3040515919  MEMB      25              0.0000000000
      3282        25  POPC      H101          -27.4143830958       -3.8395806372        4.8602224864  MEMB      25              0.0000000000
      3283        25  POPC      C211          -26.5250795028       -5.8718679956        4.7395782904  MEMB      25              0.0000000000
      3284        25  POPC      H11R          -26.2490360920       -6.5627885437        5.5646541136  MEMB      25              0.0000000000
      3285        25  POPC      H11S          -25.6175874760       -5.4066822187        4.2986912025  MEMB      25              0.0000000000
      3286        25  POPC      C212          -27.0895785973       -6.7410597098        3.5781536108  MEMB      25              0.0000000000
      3287        25  POPC      H12R          -28.1006036985       -7.1290192594        3.8264207392  MEMB      25              0.0000000000
      3288        25  POPC      H12S          -26.4350807969       -7.6266859197        3.4311166723  MEMB      25              0.0000000000
      3289        25  POPC      C213          -27.2981157030       -5.9733291886        2.2178377683  MEMB      25              0.0000000000
      3290        25  POPC      H13R          -27.5588751503       -4.9031269092        2.3627270112  MEMB      25              0.0000000000
      3291        25  POPC      H13S          -28.1625075150       -6.4865899706        1.7448552869  MEMB      25              0.0000000000
      3292        25  POPC      C214          -26.1612706666       -5.9945706767        1.1154785487  MEMB      25              0.0000000000
      3293        25  POPC      H14R          -25.8582868974       -7.0574829700        1.0026106626  MEMB      25              0.0000000000
      3294        25  POPC      H14S          -25.2571362169       -5.4793264302        1.5045605285  MEMB      25              0.0000000000
      3295        25  POPC      C215          -26.4139899383       -5.3462249625       -0.2104310500  MEMB      25              0.0000000000
      3296        25  POPC      H15R          -25.5224110755       -5.4617402956       -0.8631680357  MEMB      25              0.0000000000
      3297        25  POPC      H15S          -26.5649373274       -4.2524500063       -0.0871740440  MEMB      25              0.0000000000
      3298        25  POPC      C216          -27.6815062214       -5.9593202423       -0.8823251176  MEMB      25              0.0000000000
      3299        25  POPC      H16R          -28.5345335671       -5.3361055221       -0.5384224316  MEMB      25              0.0000000000
      3300        25  POPC      H16S          -27.7202007221       -6.9763272034       -0.4367691568  MEMB      25              0.0000000000
      3301        25  POPC      C217          -27.7077582060       -5.9946375386       -2.3965097316  MEMB      25              0.0000000000
      3302        25  POPC      H17R          -27.6898053337       -4.9395223080       -2.7439713256  MEMB      25              0.0000000000
      3303        25  POPC      H17S          -28.6827042999       -6.3534602088       -2.7902687840  MEMB      25              0.0000000000
      3304        25  POPC      C218          -26.6339929561       -6.8383786890       -3.0075819223  MEMB      25              0.0000000000
      3305        25  POPC      H18R          -25.6633485110       -6.3705395733       -2.7368495296  MEMB      25              0.0000000000
      3306        25  POPC      H18S          -26.7938466748       -6.7716645542       -4.1049956029  MEMB      25              0.0000000000
      3307        25  POPC      H18T          -26.6375726929       -7.8819819337       -2.6265320409  MEMB      25              0.0000000000
      3308        25  POPC      C33           -24.1824939718       -4.2341561832       14.2367756940  MEMB      25              0.0000000000
      3309        25  POPC      H3X           -24.5716830308       -4.8271007048       13.3816328170  MEMB      25              0.0000000000
      3310        25  POPC      H3Y           -23.6670873842       -4.8773004314       14.9817875572  MEMB      25              0.0000000000
      3311        25  POPC      C34           -23.0675880650       -3.3177170640       13.6293716597  MEMB      25              0.0000000000
      3312        25  POPC      H4X           -22.5444536274       -2.6587562245       14.3549213304  MEMB      25              0.0000000000
      3313        25  POPC      H4Y           -23.5842009532       -2.6516304509       12.9056589439  MEMB      25              0.0000000000
      3314        25  POPC      C35           -22.0256704147       -4.0659033340       12.8672483185  MEMB      25              0.0000000000
      3315        25  POPC      H5X           -21.9325039967       -5.0737453729       13.3253924290  MEMB      25              0.0000000000
      3316        25  POPC      H5Y           -21.0434885935       -3.5573398475       12.9721430570  MEMB      25              0.0000000000
      3317        25  POPC      C36           -22.3677842254       -4.2896853349       11.4089570445  MEMB      25              0.0000000000
      3318        25  POPC      H6X           -22.0984484535       -3.4044899211       10.7939705152  MEMB      25              0.0000000000
      3319        25  POPC      H6Y           -23.4023089910       -4.6847237294       11.3193790405  MEMB      25              0.0000000000
      3320        25  POPC      C37           -21.5507051300       -5.4199134798       10.8398568859  MEMB      25              0.0000000000
      3321        25  POPC      H7X           -21.8546105394       -6.2706670500       11.4865257741  MEMB      25              0.0000000000
      3322        25  POPC      H7Y           -20.4452158827       -5.3107177001       10.8227889408  MEMB      25              0.0000000000
      3323        25  POPC      C38           -21.9097905725       -5.5122148394        9.3931160798  MEMB      25              0.0000000000
      3324        25  POPC      H8X           -21.6369105864       -4.5299424766        8.9515298763  MEMB      25              0.0000000000
      3325        25  POPC      H8Y           -23.0002473256       -5.6463039433        9.2280563811  MEMB      25              0.0000000000
      3326        25  POPC      C39           -21.1081479352       -6.6885606535        8.7093518398  MEMB      25              0.0000000000
      3327        25  POPC      H9X           -21.6371007037       -7.5968224445        9.0693381642  MEMB      25              0.0000000000
      3328        25  POPC      H9Y           -20.0124134738       -6.6448717253        8.8876157383  MEMB      25              0.0000000000
      3329        25  POPC      C310          -21.4994072811       -6.8161583577        7.2614424527  MEMB      25              0.0000000000
      3330        25  POPC      H10X          -20.8982747102       -6.2331640115        6.5313198426  MEMB      25              0.0000000000
      3331        25  POPC      H10Y          -22.5763850457       -6.6002237619        7.0946719411  MEMB      25              0.0000000000
      3332        25  POPC      C311          -21.4271483847       -8.2521261396        6.6452680818  MEMB      25              0.0000000000
      3333        25  POPC      H11X          -21.9527650992       -9.0097878903        7.2649427417  MEMB      25              0.0000000000
      3334        25  POPC      H11Y          -20.3619530328       -8.5644544899        6.5991052470  MEMB      25              0.0000000000
      3335        25  POPC      C312          -22.1930835445       -8.4133988085        5.2957913172  MEMB      25              0.0000000000
      3336        25  POPC      H12X          -23.2735216754       -8.3228236405        5.5382178325  MEMB      25              0.0000000000
      3337        25  POPC      H12Y          -22.1000014261       -9.4405997053        4.8828563334  MEMB      25              0.0000000000
      3338        25  POPC      C313          -21.8912825772       -7.3816072551        4.2337579683  MEMB      25              0.0000000000
      3339        25  POPC      H13X          -20.7830993570       -7.3581424190        4.1582605098  MEMB      25              0.0000000000
      3340        25  POPC      H13Y          -22.2659125337       -6.3676002613        4.4902015079  MEMB      25              0.0000000000
      3341        25  POPC      C314          -22.4967387789       -7.7382115594        2.8531449562  MEMB      25              0.0000000000
      3342        25  POPC      H14X          -23.5011976636       -7.2645427115        2.8851010028  MEMB      25              0.0000000000
      3343        25  POPC      H14Y          -22.6538378856       -8.8380386906        2.8485504310  MEMB      25              0.0000000000
      3344        25  POPC      C315          -21.6088887210       -7.3537849451        1.7253225271  MEMB      25              0.0000000000
      3345        25  POPC      H15X          -20.6048652839       -7.7232657763        2.0248927768  MEMB      25              0.0000000000
      3346        25  POPC      H15Y          -21.5372639672       -6.2612403752        1.5368090085  MEMB      25              0.0000000000
      3347        25  POPC      C316          -22.2000107544       -7.8098723372        0.3633919051  MEMB      25              0.0000000000
      3348        25  POPC      H16X          -21.4712823606       -7.7037401018       -0.4684820579  MEMB      25              0.0000000000
      3349        25  POPC      H16Y          -23.1263955702       -7.2345427024        0.1509554019  MEMB      25              0.0000000000
      3350        25  POPC      H16Z          -22.5224897063       -8.8693344181        0.4520917167  MEMB      25              0.0000000000
      3351        26  POPC      N              12.3318496429      -25.6844743229       19.9846085746  MEMB      26              0.0000000000
      3352        26  POPC      C12            11.0728973220      -26.3739996409       19.4306544020  MEMB      26              0.0000000000
      3353        26  POPC      H12A           11.0190994291      -27.3070465602       19.9718838823  MEMB      26              0.0000000000
      3354        26  POPC      H12B           11.1824909920      -26.5297657489       18.3675805014  MEMB      26              0.0000000000
      3355        26  POPC      C13            12.6002910839      -24.4490147610       19.3425188740  MEMB      26              0.0000000000
      3356        26  POPC      H13A           13.5903572523      -24.0617623592       19.5327941637  MEMB      26              0.0000000000
      3357        26  POPC      H13B           12.4248477956      -24.4303181802       18.2770283651  MEMB      26              0.0000000000
      3358        26  POPC      H13C           11.9827558634      -23.6941687952       19.8064777058  MEMB      26              0.0000000000
      3359        26  POPC      C14            12.2108190588      -25.4885050968       21.5072074470  MEMB      26              0.0000000000
      3360        26  POPC      H14A           11.5684073942      -24.6869168764       21.8406192090  MEMB      26              0.0000000000
      3361        26  POPC      H14B           11.9485099068      -26.4481707577       21.9274878569  MEMB      26              0.0000000000
      3362        26  POPC      H14C           13.1949560206      -25.2058404154       21.8506827868  MEMB      26              0.0000000000
      3363        26  POPC      C15            13.3970839544      -26.7255303253       19.8442658900  MEMB      26              0.0000000000
      3364        26  POPC      H15A           13.1988332337      -27.2747828948       18.9357406029  MEMB      26              0.0000000000
      3365        26  POPC      H15B           13.2983674213      -27.5718598087       20.5078782445  MEMB      26              0.0000000000
      3366        26  POPC      H15C           14.3368677090      -26.1980969322       19.9151196851  MEMB      26              0.0000000000
      3367        26  POPC      C11             9.7310469761      -25.4902047554       19.5779192090  MEMB      26              0.0000000000
      3368        26  POPC      H11A            9.5393580268      -25.1157726137       20.6062076035  MEMB      26              0.0000000000
      3369        26  POPC      H11B            8.8816207115      -26.1784872976       19.3802752663  MEMB      26              0.0000000000
      3370        26  POPC      P               8.4533040252      -23.9802517550       17.7996914953  MEMB      26              0.0000000000
      3371        26  POPC      O13             7.3155493692      -23.8156958602       18.7288507401  MEMB      26              0.0000000000
      3372        26  POPC      O14             8.3791392165      -25.0516818662       16.8026188913  MEMB      26              0.0000000000
      3373        26  POPC      O12             9.6473752952      -24.3382945708       18.8015101985  MEMB      26              0.0000000000
      3374        26  POPC      O11             8.9166146558      -22.6000017942       17.1801542757  MEMB      26              0.0000000000
      3375        26  POPC      C1              9.5814005777      -22.5997173937       15.9525656434  MEMB      26              0.0000000000
      3376        26  POPC      HA              9.5001619466      -23.5704506651       15.4183387450  MEMB      26              0.0000000000
      3377        26  POPC      HB             10.6597766116      -22.5258008634       16.2093970938  MEMB      26              0.0000000000
      3378        26  POPC      C2              9.0733057390      -21.4076548576       15.0507675356  MEMB      26              0.0000000000
      3379        26  POPC      HS              9.1018911496      -20.4374826397       15.5913875811  MEMB      26              0.0000000000
      3380        26  POPC      O21             7.7837463310      -21.7947333924       14.6372066143  MEMB      26              0.0000000000
      3381        26  POPC      C21             7.0343336337      -20.9112250293       13.9296880684  MEMB      26              0.0000000000
      3382        26  POPC      O22             7.3164183027      -19.7588500650       13.7249055325  MEMB      26              0.0000000000
      3383        26  POPC      C22             5.6892643779      -21.5837536326       13.5213029399  MEMB      26              0.0000000000
      3384        26  POPC      H2R             4.8978890234      -20.8097537821       13.4265914479  MEMB      26              0.0000000000
      3385        26  POPC      H2S             5.4235685384      -22.2730748085       14.3510997092  MEMB      26              0.0000000000
      3386        26  POPC      C3             10.0841047690      -21.4204816896       13.8931958334  MEMB      26              0.0000000000
      3387        26  POPC      HX             11.0955195250      -21.4483632138       14.3520900747  MEMB      26              0.0000000000
      3388        26  POPC      HY              9.9282430272      -20.5113417142       13.2739282484  MEMB      26              0.0000000000
      3389        26  POPC      O31             9.8871521974      -22.5204059329       13.0298205500  MEMB      26              0.0000000000
      3390        26  POPC      C31            10.8024255668      -22.5369134377       12.1948162619  MEMB      26              0.0000000000
      3391        26  POPC      O32            11.7855926270      -21.7962651577       12.1901598906  MEMB      26              0.0000000000
      3392        26  POPC      C32            10.5670268779      -23.7230168457       11.1973378519  MEMB      26              0.0000000000
      3393        26  POPC      H2X            10.4142699083      -23.2262292555       10.2154065987  MEMB      26              0.0000000000
      3394        26  POPC      H2Y             9.5517894261      -24.1390557868       11.3720534446  MEMB      26              0.0000000000
      3395        26  POPC      C23             5.7279561512      -22.3598422191       12.2029387529  MEMB      26              0.0000000000
      3396        26  POPC      H3R             4.6842005296      -22.6818447885       11.9999384916  MEMB      26              0.0000000000
      3397        26  POPC      H3S             6.4776220061      -23.1248203137       12.4981178099  MEMB      26              0.0000000000
      3398        26  POPC      C24             6.1436614520      -21.6419020142       10.8614339421  MEMB      26              0.0000000000
      3399        26  POPC      H4R             5.4882188321      -20.7502066940       10.7634778613  MEMB      26              0.0000000000
      3400        26  POPC      H4S             5.7922322745      -22.3482191086       10.0791711372  MEMB      26              0.0000000000
      3401        26  POPC      C25             7.6269632811      -21.3726942078       10.7108002193  MEMB      26              0.0000000000
      3402        26  POPC      H5R             8.1079803632      -22.3741616601       10.7133898521  MEMB      26              0.0000000000
      3403        26  POPC      H5S             8.0098969162      -20.9402914271       11.6598578985  MEMB      26              0.0000000000
      3404        26  POPC      C26             7.9818855817      -20.5642030492        9.4452711919  MEMB      26              0.0000000000
      3405        26  POPC      H6R             7.9388058011      -19.4655739394        9.6048922530  MEMB      26              0.0000000000
      3406        26  POPC      H6S             7.2975202232      -20.8473988826        8.6171611495  MEMB      26              0.0000000000
      3407        26  POPC      C27             9.4642397098      -20.8286702735        9.0207715690  MEMB      26              0.0000000000
      3408        26  POPC      H7R             9.4593511682      -21.9078670591        8.7568931654  MEMB      26              0.0000000000
      3409        26  POPC      H7S            10.0540054601      -20.8593551559        9.9618115275  MEMB      26              0.0000000000
      3410        26  POPC      C28             9.9967970207      -19.7867347239        7.9772484088  MEMB      26              0.0000000000
      3411        26  POPC      H8R             9.9388249897      -18.8202720497        8.5221428460  MEMB      26              0.0000000000
      3412        26  POPC      H8S             9.3700025385      -19.7894917636        7.0599471609  MEMB      26              0.0000000000
      3413        26  POPC      C29            11.4853645748      -20.0549283711        7.6207913188  MEMB      26              0.0000000000
      3414        26  POPC      H91            12.1762061505      -19.5984559925        8.3449263640  MEMB      26              0.0000000000
      3415        26  POPC      C210           11.9346172387      -20.9403358620        6.7728606336  MEMB      26              0.0000000000
      3416        26  POPC      H101           13.0315455398      -20.9261818585        6.6919428839  MEMB      26              0.0000000000
      3417        26  POPC      C211           11.0888740446      -21.8920317372        5.9882707630  MEMB      26              0.0000000000
      3418        26  POPC      H11R           10.0697067516      -22.0524538902        6.4004405340  MEMB      26              0.0000000000
      3419        26  POPC      H11S           11.6923632676      -22.8247720699        5.9774445572  MEMB      26              0.0000000000
      3420        26  POPC      C212           10.7778631544      -21.5509106074        4.5190048009  MEMB      26              0.0000000000
      3421        26  POPC      H12R           10.3939013200      -22.4522953865        3.9951728114  MEMB      26              0.0000000000
      3422        26  POPC      H12S           11.7602458946      -21.1828037829        4.1532961957  MEMB      26              0.0000000000
      3423        26  POPC      C213            9.6696357343      -20.5140025288        4.2519625327  MEMB      26              0.0000000000
      3424        26  POPC      H13R           10.0205828813      -19.4772530770        4.4425100840  MEMB      26              0.0000000000
      3425        26  POPC      H13S            8.9017227992      -20.8256504269        4.9918990470  MEMB      26              0.0000000000
      3426        26  POPC      C214            9.2032434292      -20.5282875535        2.7658516769  MEMB      26              0.0000000000
      3427        26  POPC      H14R           10.0164992724      -20.1225513645        2.1268581926  MEMB      26              0.0000000000
      3428        26  POPC      H14S            8.4713978232      -19.7013342859        2.6439035815  MEMB      26              0.0000000000
      3429        26  POPC      C215            8.5315225713      -21.7763076638        2.1458780496  MEMB      26              0.0000000000
      3430        26  POPC      H15R            7.8834586236      -22.0641533548        3.0011447022  MEMB      26              0.0000000000
      3431        26  POPC      H15S            9.1964210752      -22.6622567767        2.0602909780  MEMB      26              0.0000000000
      3432        26  POPC      C216            7.5684799586      -21.7142224613        0.9017499898  MEMB      26              0.0000000000
      3433        26  POPC      H16R            6.7358081593      -21.0212837116        1.1483565739  MEMB      26              0.0000000000
      3434        26  POPC      H16S            7.2268367742      -22.7467354646        0.6747759052  MEMB      26              0.0000000000
      3435        26  POPC      C217            8.3784165781      -21.3146947407       -0.3085930950  MEMB      26              0.0000000000
      3436        26  POPC      H17R            9.3825188394      -21.7833329180       -0.2281072097  MEMB      26              0.0000000000
      3437        26  POPC      H17S            8.4437169297      -20.2073716144       -0.2462066987  MEMB      26              0.0000000000
      3438        26  POPC      C218            7.7774711689      -21.8735318716       -1.6106909401  MEMB      26              0.0000000000
      3439        26  POPC      H18R            6.6842764315      -21.7042643819       -1.7136209036  MEMB      26              0.0000000000
      3440        26  POPC      H18S            7.8895057998      -22.9786485626       -1.5886383321  MEMB      26              0.0000000000
      3441        26  POPC      H18T            8.2384902620      -21.4747386163       -2.5395320812  MEMB      26              0.0000000000
      3442        26  POPC      C33            11.7705438159      -24.7298393893       10.9721404806  MEMB      26              0.0000000000
      3443        26  POPC      H3X            11.7791769883      -25.5062060936       11.7668112573  MEMB      26              0.0000000000
      3444        26  POPC      H3Y            12.7350665245      -24.1902744335       10.8586211937  MEMB      26              0.0000000000
      3445        26  POPC      C34            11.5070903452      -25.4473240305        9.6250895514  MEMB      26              0.0000000000
      3446        26  POPC      H4X            12.2008720863      -26.3007409326        9.4680300569  MEMB      26              0.0000000000
      3447        26  POPC      H4Y            11.5991962728      -24.7298528340        8.7818386411  MEMB      26              0.0000000000
      3448        26  POPC      C35            10.0513434779      -26.0625882749        9.4685369574  MEMB      26              0.0000000000
      3449        26  POPC      H5X             9.3224804902      -25.2434286870        9.2894917948  MEMB      26              0.0000000000
      3450        26  POPC      H5Y             9.8076773131      -26.6859397041       10.3553182832  MEMB      26              0.0000000000
      3451        26  POPC      C36             9.9249089759      -26.9396205622        8.2359745181  MEMB      26              0.0000000000
      3452        26  POPC      H6X             8.8529289644      -27.2314139008        8.2299074921  MEMB      26              0.0000000000
      3453        26  POPC      H6Y            10.5111557846      -27.8518517293        8.4777800323  MEMB      26              0.0000000000
      3454        26  POPC      C37            10.3457772496      -26.2367857161        6.9019077259  MEMB      26              0.0000000000
      3455        26  POPC      H7X            11.4231649058      -25.9656818697        6.9096129484  MEMB      26              0.0000000000
      3456        26  POPC      H7Y             9.7622468137      -25.3093947495        6.7181700707  MEMB      26              0.0000000000
      3457        26  POPC      C38            10.1433985948      -27.1878168084        5.7273858028  MEMB      26              0.0000000000
      3458        26  POPC      H8X             9.1089695246      -27.5810077684        5.8257648389  MEMB      26              0.0000000000
      3459        26  POPC      H8Y            10.8507966274      -28.0445015588        5.7277403491  MEMB      26              0.0000000000
      3460        26  POPC      C39            10.3559053442      -26.6077377916        4.3390306486  MEMB      26              0.0000000000
      3461        26  POPC      H9X            10.3015653517      -27.4892536952        3.6650140862  MEMB      26              0.0000000000
      3462        26  POPC      H9Y            11.3365215949      -26.0863726851        4.3091787620  MEMB      26              0.0000000000
      3463        26  POPC      C310            9.2643058254      -25.5379058584        3.9053488024  MEMB      26              0.0000000000
      3464        26  POPC      H10X            9.5172014955      -24.6574820910        4.5340125340  MEMB      26              0.0000000000
      3465        26  POPC      H10Y            8.3154208329      -25.9792422706        4.2783907321  MEMB      26              0.0000000000
      3466        26  POPC      C311            9.2582057029      -25.4700096694        2.3845059815  MEMB      26              0.0000000000
      3467        26  POPC      H11X            8.5495799711      -24.6444599498        2.1594781545  MEMB      26              0.0000000000
      3468        26  POPC      H11Y            8.9286309763      -26.4105154120        1.8934359400  MEMB      26              0.0000000000
      3469        26  POPC      C312           10.6337739455      -25.1992369506        1.7364929592  MEMB      26              0.0000000000
      3470        26  POPC      H12X           11.1783651640      -26.1676063143        1.7350107651  MEMB      26              0.0000000000
      3471        26  POPC      H12Y           11.1289738634      -24.3895880720        2.3140441954  MEMB      26              0.0000000000
      3472        26  POPC      C313           10.5433797117      -24.8498266823        0.1654660412  MEMB      26              0.0000000000
      3473        26  POPC      H13X           10.0035169417      -23.8791888749        0.1384194299  MEMB      26              0.0000000000
      3474        26  POPC      H13Y            9.8968931866      -25.6822416514       -0.1859049321  MEMB      26              0.0000000000
      3475        26  POPC      C314           11.8344731458      -24.4940716754       -0.5801294117  MEMB      26              0.0000000000
      3476        26  POPC      H14X           12.4373245550      -25.4266604664       -0.6143246317  MEMB      26              0.0000000000
      3477        26  POPC      H14Y           12.4323927847      -23.7201948381       -0.0529389424  MEMB      26              0.0000000000
      3478        26  POPC      C315           11.5047978594      -24.2172415136       -2.0630360839  MEMB      26              0.0000000000
      3479        26  POPC      H15X           11.0049570454      -23.2252839212       -2.0854087000  MEMB      26              0.0000000000
      3480        26  POPC      H15Y           10.7366931661      -24.9125109007       -2.4642065296  MEMB      26              0.0000000000
      3481        26  POPC      C316           12.6817184249      -24.1610617487       -2.9997757291  MEMB      26              0.0000000000
      3482        26  POPC      H16X           13.1285952648      -25.1039347540       -3.3813671333  MEMB      26              0.0000000000
      3483        26  POPC      H16Y           13.4909050396      -23.5394653502       -2.5602803851  MEMB      26              0.0000000000
      3484        26  POPC      H16Z           12.4049640544      -23.6550967057       -3.9493681253  MEMB      26              0.0000000000
      3485        27  POPC      N              19.6442286081      -11.5614208608       20.8527248465  MEMB      27              0.0000000000
      3486        27  POPC      C12            18.4881858614      -11.0263813307       19.8953628535  MEMB      27              0.0000000000
      3487        27  POPC      H12A           17.5881412754      -11.0251989369       20.4922869074  MEMB      27              0.0000000000
      3488        27  POPC      H12B           18.2928978827      -11.7020308667       19.0757529962  MEMB      27              0.0000000000
      3489        27  POPC      C13            20.9443986627      -11.6966168616       20.1068239585  MEMB      27              0.0000000000
      3490        27  POPC      H13A           20.9307710816      -12.4043017388       19.2911055963  MEMB      27              0.0000000000
      3491        27  POPC      H13B           21.1977672754      -10.7046705088       19.7629538427  MEMB      27              0.0000000000
      3492        27  POPC      H13C           21.6200368865      -12.2365572125       20.7536449082  MEMB      27              0.0000000000
      3493        27  POPC      C14            20.0508954418      -10.6092943077       22.0154195457  MEMB      27              0.0000000000
      3494        27  POPC      H14A           20.8746046040      -10.8264794830       22.6792973676  MEMB      27              0.0000000000
      3495        27  POPC      H14B           20.3564079524       -9.7226339355       21.4797932329  MEMB      27              0.0000000000
      3496        27  POPC      H14C           19.1107229967      -10.3906559559       22.4998503402  MEMB      27              0.0000000000
      3497        27  POPC      C15            19.1339445042      -12.8609905135       21.5265238836  MEMB      27              0.0000000000
      3498        27  POPC      H15A           19.8988108962      -13.2406260514       22.1877772990  MEMB      27              0.0000000000
      3499        27  POPC      H15B           18.9250830797      -13.6792929691       20.8533538499  MEMB      27              0.0000000000
      3500        27  POPC      H15C           18.2864236236      -12.6902823705       22.1738004959  MEMB      27              0.0000000000
      3501        27  POPC      C11            18.7672790784       -9.6280376005       19.2804694732  MEMB      27              0.0000000000
      3502        27  POPC      H11A           18.8596839834       -8.9833399094       20.1805511857  MEMB      27              0.0000000000
      3503        27  POPC      H11B           17.9151422725       -9.1831765610       18.7234393391  MEMB      27              0.0000000000
      3504        27  POPC      P              19.9845555846      -10.2291127685       17.0161030097  MEMB      27              0.0000000000
      3505        27  POPC      O13            18.9945988626      -11.3521935509       16.9848507065  MEMB      27              0.0000000000
      3506        27  POPC      O14            21.3459412382      -10.5303562473       16.5747083986  MEMB      27              0.0000000000
      3507        27  POPC      O12            19.9694615114       -9.6175954946       18.4922874714  MEMB      27              0.0000000000
      3508        27  POPC      O11            19.3935595473       -8.9468380658       16.2547258576  MEMB      27              0.0000000000
      3509        27  POPC      C1             19.1507820329       -7.6281878106       16.7949700055  MEMB      27              0.0000000000
      3510        27  POPC      HA             19.7211456254       -7.3960764941       17.7197029391  MEMB      27              0.0000000000
      3511        27  POPC      HB             18.0855569157       -7.4244731759       17.0360439729  MEMB      27              0.0000000000
      3512        27  POPC      C2             19.6634121247       -6.5642002204       15.7694086492  MEMB      27              0.0000000000
      3513        27  POPC      HS             19.2724126745       -5.5339761197       15.9111096982  MEMB      27              0.0000000000
      3514        27  POPC      O21            19.4144134266       -6.9532011783       14.4195767605  MEMB      27              0.0000000000
      3515        27  POPC      C21            18.0870041092       -7.1872593371       14.0987865139  MEMB      27              0.0000000000
      3516        27  POPC      O22            17.1090458561       -6.9279085556       14.8100670866  MEMB      27              0.0000000000
      3517        27  POPC      C22            18.0047018188       -7.9037286849       12.7121515784  MEMB      27              0.0000000000
      3518        27  POPC      H2R            17.9400295454       -9.0071528056       12.8243741240  MEMB      27              0.0000000000
      3519        27  POPC      H2S            18.9842404828       -7.6924899399       12.2323567650  MEMB      27              0.0000000000
      3520        27  POPC      C3             21.2573547252       -6.3980471888       15.7933304595  MEMB      27              0.0000000000
      3521        27  POPC      HX             21.5158201461       -6.2554864479       16.8644014926  MEMB      27              0.0000000000
      3522        27  POPC      HY             21.4532795591       -5.5511565938       15.1014408713  MEMB      27              0.0000000000
      3523        27  POPC      O31            22.0095842358       -7.5391660990       15.3992755904  MEMB      27              0.0000000000
      3524        27  POPC      C31            22.5593124780       -7.5710080187       14.2452800626  MEMB      27              0.0000000000
      3525        27  POPC      O32            22.5580554464       -6.6691109261       13.4153229516  MEMB      27              0.0000000000
      3526        27  POPC      C32            22.9667574157       -8.9750897388       13.9389436533  MEMB      27              0.0000000000
      3527        27  POPC      H2X            23.3181367303       -9.4638502964       14.8727355219  MEMB      27              0.0000000000
      3528        27  POPC      H2Y            23.8469520382       -8.9815741950       13.2610527425  MEMB      27              0.0000000000
      3529        27  POPC      C23            16.9660403679       -7.2573735778       11.7507097439  MEMB      27              0.0000000000
      3530        27  POPC      H3R            16.8896670099       -6.1570950402       11.8844104130  MEMB      27              0.0000000000
      3531        27  POPC      H3S            16.0436516387       -7.7851260945       12.0747424142  MEMB      27              0.0000000000
      3532        27  POPC      C24            17.2921453803       -7.5988190740       10.2579666664  MEMB      27              0.0000000000
      3533        27  POPC      H4R            16.4006172643       -7.7710993563        9.6177965162  MEMB      27              0.0000000000
      3534        27  POPC      H4S            17.8702135759       -8.5250979219       10.4633096842  MEMB      27              0.0000000000
      3535        27  POPC      C25            18.2334096831       -6.5384726544        9.6423152546  MEMB      27              0.0000000000
      3536        27  POPC      H5R            18.9396059185       -6.1287542113       10.3958000661  MEMB      27              0.0000000000
      3537        27  POPC      H5S            17.6248233071       -5.6543020830        9.3556339835  MEMB      27              0.0000000000
      3538        27  POPC      C26            19.0212276376       -7.1802709881        8.5498205531  MEMB      27              0.0000000000
      3539        27  POPC      H6R            19.5037623693       -6.3824896485        7.9456463516  MEMB      27              0.0000000000
      3540        27  POPC      H6S            18.3637279215       -7.6390179172        7.7806869759  MEMB      27              0.0000000000
      3541        27  POPC      C27            20.0344952030       -8.1744727827        9.1077787986  MEMB      27              0.0000000000
      3542        27  POPC      H7R            19.4875360398       -9.1099710027        9.3527283494  MEMB      27              0.0000000000
      3543        27  POPC      H7S            20.3746731145       -7.7211656989       10.0633482091  MEMB      27              0.0000000000
      3544        27  POPC      C28            21.2031957257       -8.3885934540        8.1659768675  MEMB      27              0.0000000000
      3545        27  POPC      H8R            21.8021876977       -7.4558369173        8.0918484944  MEMB      27              0.0000000000
      3546        27  POPC      H8S            20.7789364141       -8.5149597080        7.1469785480  MEMB      27              0.0000000000
      3547        27  POPC      C29            21.9898720962       -9.5438913855        8.6097571518  MEMB      27              0.0000000000
      3548        27  POPC      H91            22.1910546606       -9.5130592560        9.6907640994  MEMB      27              0.0000000000
      3549        27  POPC      C210           22.4063767781      -10.5991725626        7.8782618600  MEMB      27              0.0000000000
      3550        27  POPC      H101           22.8767056460      -11.4643361322        8.3684480844  MEMB      27              0.0000000000
      3551        27  POPC      C211           22.1317646126      -10.8222924101        6.4126719297  MEMB      27              0.0000000000
      3552        27  POPC      H11R           23.0982491097      -10.6476056404        5.8933326864  MEMB      27              0.0000000000
      3553        27  POPC      H11S           21.3458205366      -10.1335574452        6.0355027658  MEMB      27              0.0000000000
      3554        27  POPC      C212           21.6568303959      -12.1883251189        5.8979018062  MEMB      27              0.0000000000
      3555        27  POPC      H12R           20.5715687661      -12.2897989389        6.1129169985  MEMB      27              0.0000000000
      3556        27  POPC      H12S           22.3043135660      -12.9548500174        6.3748991302  MEMB      27              0.0000000000
      3557        27  POPC      C213           21.7373394023      -12.3854662924        4.3093097047  MEMB      27              0.0000000000
      3558        27  POPC      H13R           21.0723795059      -11.6453295256        3.8149943946  MEMB      27              0.0000000000
      3559        27  POPC      H13S           21.4413860654      -13.4210698568        4.0368064832  MEMB      27              0.0000000000
      3560        27  POPC      C214           23.1486229211      -12.4047167997        3.7358734931  MEMB      27              0.0000000000
      3561        27  POPC      H14R           23.6495308956      -13.3209259010        4.1153120593  MEMB      27              0.0000000000
      3562        27  POPC      H14S           23.7678118130      -11.5311420696        4.0321729289  MEMB      27              0.0000000000
      3563        27  POPC      C215           23.1059077989      -12.4727124289        2.1553455376  MEMB      27              0.0000000000
      3564        27  POPC      H15R           22.8325828057      -11.4205936105        1.9258694001  MEMB      27              0.0000000000
      3565        27  POPC      H15S           22.3243067762      -13.2239393011        1.9122836862  MEMB      27              0.0000000000
      3566        27  POPC      C216           24.4890799623      -12.8346078886        1.5329269412  MEMB      27              0.0000000000
      3567        27  POPC      H16R           24.6978750889      -13.8638070478        1.8955206755  MEMB      27              0.0000000000
      3568        27  POPC      H16S           25.2292791032      -12.1550458907        2.0068696045  MEMB      27              0.0000000000
      3569        27  POPC      C217           24.5010708494      -12.9437738065       -0.0066751567  MEMB      27              0.0000000000
      3570        27  POPC      H17R           23.5946654052      -13.4997608761       -0.3285891497  MEMB      27              0.0000000000
      3571        27  POPC      H17S           25.3939363927      -13.5772110306       -0.1960696252  MEMB      27              0.0000000000
      3572        27  POPC      C218           24.5338689572      -11.6064867848       -0.8535795095  MEMB      27              0.0000000000
      3573        27  POPC      H18R           23.6170893664      -10.9795527128       -0.8254689918  MEMB      27              0.0000000000
      3574        27  POPC      H18S           24.6811781404      -11.8455340059       -1.9285111060  MEMB      27              0.0000000000
      3575        27  POPC      H18T           25.2689825372      -10.9323646426       -0.3642034120  MEMB      27              0.0000000000
      3576        27  POPC      C33            21.8013947726       -9.7185395012       13.1932539138  MEMB      27              0.0000000000
      3577        27  POPC      H3X            21.7184345942       -9.2329494477       12.1974423986  MEMB      27              0.0000000000
      3578        27  POPC      H3Y            20.7797629293       -9.7220825972       13.6298050030  MEMB      27              0.0000000000
      3579        27  POPC      C34            22.1576324866      -11.2324247300       12.9292121921  MEMB      27              0.0000000000
      3580        27  POPC      H4X            22.6472460431      -11.5460767498       13.8759021053  MEMB      27              0.0000000000
      3581        27  POPC      H4Y            22.8091372767      -11.2337547220       12.0292892069  MEMB      27              0.0000000000
      3582        27  POPC      C35            21.0016352579      -12.0666745349       12.5462099518  MEMB      27              0.0000000000
      3583        27  POPC      H5X            20.4946299096      -12.1707342605       13.5292854529  MEMB      27              0.0000000000
      3584        27  POPC      H5Y            21.3600892999      -13.0424168926       12.1540892979  MEMB      27              0.0000000000
      3585        27  POPC      C36            19.9501976109      -11.4668184530       11.5619037272  MEMB      27              0.0000000000
      3586        27  POPC      H6X            20.4186716243      -11.1469941783       10.6066207486  MEMB      27              0.0000000000
      3587        27  POPC      H6Y            19.4767082991      -10.5648344510       12.0052476895  MEMB      27              0.0000000000
      3588        27  POPC      C37            18.8986976883      -12.5467393817       11.1902909698  MEMB      27              0.0000000000
      3589        27  POPC      H7X            18.2561596461      -12.8033361259       12.0595574466  MEMB      27              0.0000000000
      3590        27  POPC      H7Y            19.3762487026      -13.5390675905       11.0434883653  MEMB      27              0.0000000000
      3591        27  POPC      C38            17.9595812073      -11.9512354271       10.0930799676  MEMB      27              0.0000000000
      3592        27  POPC      H8X            17.8920830352      -10.8519855229       10.2394173692  MEMB      27              0.0000000000
      3593        27  POPC      H8Y            16.9547687309      -12.4244695654       10.1199461440  MEMB      27              0.0000000000
      3594        27  POPC      C39            18.5346119060      -12.1787411422        8.7083821498  MEMB      27              0.0000000000
      3595        27  POPC      H9X            18.8239536966      -13.2411218985        8.5602283516  MEMB      27              0.0000000000
      3596        27  POPC      H9Y            19.4766479689      -11.5964509056        8.6199162005  MEMB      27              0.0000000000
      3597        27  POPC      C310           17.6517819371      -11.7390999751        7.5156124941  MEMB      27              0.0000000000
      3598        27  POPC      H10X           16.6023051881      -12.0714559225        7.6654760329  MEMB      27              0.0000000000
      3599        27  POPC      H10Y           18.0144791855      -12.0222118365        6.5043659990  MEMB      27              0.0000000000
      3600        27  POPC      C311           17.6375315751      -10.2105787798        7.2581978883  MEMB      27              0.0000000000
      3601        27  POPC      H11X           18.6499340032       -9.9076914107        6.9152366696  MEMB      27              0.0000000000
      3602        27  POPC      H11Y           17.2080509422       -9.5532351950        8.0441791804  MEMB      27              0.0000000000
      3603        27  POPC      C312           16.7239688954       -9.8807741981        5.9920744347  MEMB      27              0.0000000000
      3604        27  POPC      H12X           16.3658593714       -8.8291219991        6.0023757887  MEMB      27              0.0000000000
      3605        27  POPC      H12Y           15.8763525587      -10.5900522354        5.8789711505  MEMB      27              0.0000000000
      3606        27  POPC      C313           17.5598764081       -9.9279145845        4.6294843180  MEMB      27              0.0000000000
      3607        27  POPC      H13X           16.8969291227       -9.8226651538        3.7441912704  MEMB      27              0.0000000000
      3608        27  POPC      H13Y           18.0324725499      -10.9331760148        4.6500611475  MEMB      27              0.0000000000
      3609        27  POPC      C314           18.6826757879       -8.8456716651        4.6445117032  MEMB      27              0.0000000000
      3610        27  POPC      H14X           19.3888600697       -8.8474163522        5.5021957021  MEMB      27              0.0000000000
      3611        27  POPC      H14Y           18.0794822579       -7.9126779392        4.6432535480  MEMB      27              0.0000000000
      3612        27  POPC      C315           19.5695553240       -8.8075721729        3.3530512889  MEMB      27              0.0000000000
      3613        27  POPC      H15X           20.1829884548       -9.7210727797        3.1996322912  MEMB      27              0.0000000000
      3614        27  POPC      H15Y           20.2798639499       -7.9706503315        3.5243538918  MEMB      27              0.0000000000
      3615        27  POPC      C316           18.9001958667       -8.5047826580        2.0115254004  MEMB      27              0.0000000000
      3616        27  POPC      H16X           18.0022626919       -7.8563001209        2.0981701863  MEMB      27              0.0000000000
      3617        27  POPC      H16Y           18.4982157357       -9.4361389764        1.5584156981  MEMB      27              0.0000000000
      3618        27  POPC      H16Z           19.4657844592       -7.9492916900        1.2331540951  MEMB      27              0.0000000000
      3619        28  POPC      N              -5.9463742707      -31.8642478245       17.9197656499  MEMB      28              0.0000000000
      3620        28  POPC      C12            -4.9893847519      -30.9211020605       18.7308163947  MEMB      28              0.0000000000
      3621        28  POPC      H12A           -4.9265599059      -30.0166682685       18.1439155503  MEMB      28              0.0000000000
      3622        28  POPC      H12B           -4.0460148648      -31.4452776042       18.7719649412  MEMB      28              0.0000000000
      3623        28  POPC      C13            -7.3046111464      -31.2349938296       17.7501676988  MEMB      28              0.0000000000
      3624        28  POPC      H13A           -7.1328447021      -30.1886687302       17.5449845036  MEMB      28              0.0000000000
      3625        28  POPC      H13B           -7.8321803100      -31.6719691791       16.9152285263  MEMB      28              0.0000000000
      3626        28  POPC      H13C           -7.8760828114      -31.3786518975       18.6552547209  MEMB      28              0.0000000000
      3627        28  POPC      C14            -5.3931861701      -31.8677243567       16.4970814216  MEMB      28              0.0000000000
      3628        28  POPC      H14A           -5.8592620828      -32.5822928929       15.8348388280  MEMB      28              0.0000000000
      3629        28  POPC      H14B           -5.2948906813      -30.8684850971       16.0992638937  MEMB      28              0.0000000000
      3630        28  POPC      H14C           -4.4018971174      -32.2821533299       16.6066020507  MEMB      28              0.0000000000
      3631        28  POPC      C15            -6.1091064702      -33.2376059852       18.5663904928  MEMB      28              0.0000000000
      3632        28  POPC      H15A           -5.1274596971      -33.6587326598       18.4069486885  MEMB      28              0.0000000000
      3633        28  POPC      H15B           -6.8658644768      -33.7130785649       17.9600546934  MEMB      28              0.0000000000
      3634        28  POPC      H15C           -6.3701872900      -33.2120335488       19.6140464036  MEMB      28              0.0000000000
      3635        28  POPC      C11            -5.4361393387      -30.5373096509       20.1364164855  MEMB      28              0.0000000000
      3636        28  POPC      H11A           -4.6253124374      -29.9969397688       20.6701590458  MEMB      28              0.0000000000
      3637        28  POPC      H11B           -5.6987024113      -31.4481846205       20.7158026380  MEMB      28              0.0000000000
      3638        28  POPC      P              -6.5587359247      -28.2727780864       19.9293816407  MEMB      28              0.0000000000
      3639        28  POPC      O13            -5.5262212493      -27.6833927380       20.8648859509  MEMB      28              0.0000000000
      3640        28  POPC      O14            -7.8853496008      -27.6587118983       20.0437848364  MEMB      28              0.0000000000
      3641        28  POPC      O12            -6.6072189646      -29.8085676642       20.1692754401  MEMB      28              0.0000000000
      3642        28  POPC      O11            -6.0746206357      -28.0614378887       18.3920339898  MEMB      28              0.0000000000
      3643        28  POPC      C1             -6.1444512653      -26.7682059977       17.7914371522  MEMB      28              0.0000000000
      3644        28  POPC      HA             -5.7632486228      -26.0065853071       18.5048369573  MEMB      28              0.0000000000
      3645        28  POPC      HB             -7.1749914425      -26.4152031095       17.5730410226  MEMB      28              0.0000000000
      3646        28  POPC      C2             -5.1545125579      -26.8193787740       16.6072734042  MEMB      28              0.0000000000
      3647        28  POPC      HS             -5.0761033022      -25.8395597253       16.0894631319  MEMB      28              0.0000000000
      3648        28  POPC      O21            -5.5226861162      -27.8840905311       15.7608745196  MEMB      28              0.0000000000
      3649        28  POPC      C21            -6.5764681188      -27.5655313179       14.9488828421  MEMB      28              0.0000000000
      3650        28  POPC      O22            -7.4272307453      -26.7146541748       15.1472557051  MEMB      28              0.0000000000
      3651        28  POPC      C22            -6.5612772476      -28.5222795517       13.7899250329  MEMB      28              0.0000000000
      3652        28  POPC      H2R            -6.3630530270      -29.5848776295       14.0466610955  MEMB      28              0.0000000000
      3653        28  POPC      H2S            -5.8428857750      -28.0841403252       13.0644813058  MEMB      28              0.0000000000
      3654        28  POPC      C3             -3.6533832746      -27.1294777603       17.1378976123  MEMB      28              0.0000000000
      3655        28  POPC      HX             -3.7638938437      -27.5756974745       18.1493303413  MEMB      28              0.0000000000
      3656        28  POPC      HY             -3.1250734265      -26.1868286722       17.3960110704  MEMB      28              0.0000000000
      3657        28  POPC      O31            -2.8586341103      -27.9899851532       16.3960809559  MEMB      28              0.0000000000
      3658        28  POPC      C31            -2.4252634714      -27.5234178367       15.2545418380  MEMB      28              0.0000000000
      3659        28  POPC      O32            -2.4039418721      -26.3643823774       14.8676329389  MEMB      28              0.0000000000
      3660        28  POPC      C32            -1.8614775911      -28.6888558597       14.4474437256  MEMB      28              0.0000000000
      3661        28  POPC      H2X            -1.8339991659      -29.6851968147       14.9382291661  MEMB      28              0.0000000000
      3662        28  POPC      H2Y            -0.7794182954      -28.5424812203       14.2424004154  MEMB      28              0.0000000000
      3663        28  POPC      C23            -7.8626015117      -28.5315272668       12.9593879396  MEMB      28              0.0000000000
      3664        28  POPC      H3R            -8.0053853355      -27.5866174819       12.3927495750  MEMB      28              0.0000000000
      3665        28  POPC      H3S            -8.8205152405      -28.7130541994       13.4920889353  MEMB      28              0.0000000000
      3666        28  POPC      C24            -7.8719741778      -29.7068080431       11.9445775778  MEMB      28              0.0000000000
      3667        28  POPC      H4R            -7.9418767226      -30.6733155810       12.4879905826  MEMB      28              0.0000000000
      3668        28  POPC      H4S            -6.8391610732      -29.7364488824       11.5362401525  MEMB      28              0.0000000000
      3669        28  POPC      C25            -9.0165040878      -29.5134919846       10.9530794262  MEMB      28              0.0000000000
      3670        28  POPC      H5R            -9.9432520070      -29.2101338027       11.4854641968  MEMB      28              0.0000000000
      3671        28  POPC      H5S            -9.1642236532      -30.4893750774       10.4430291425  MEMB      28              0.0000000000
      3672        28  POPC      C26            -8.5383889149      -28.5194153862        9.8443438311  MEMB      28              0.0000000000
      3673        28  POPC      H6R            -8.2189528857      -27.5897336830       10.3620047350  MEMB      28              0.0000000000
      3674        28  POPC      H6S            -9.4224252829      -28.2356712760        9.2341871363  MEMB      28              0.0000000000
      3675        28  POPC      C27            -7.5365835109      -29.1086474675        8.8004403701  MEMB      28              0.0000000000
      3676        28  POPC      H7R            -8.0518824134      -30.0137502440        8.4136885061  MEMB      28              0.0000000000
      3677        28  POPC      H7S            -6.6448853874      -29.4834031657        9.3470234916  MEMB      28              0.0000000000
      3678        28  POPC      C28            -7.0079420190      -28.1371673516        7.6695291352  MEMB      28              0.0000000000
      3679        28  POPC      H8R            -7.9501910853      -27.8725978579        7.1437053341  MEMB      28              0.0000000000
      3680        28  POPC      H8S            -6.3433829969      -28.8132073688        7.0901733897  MEMB      28              0.0000000000
      3681        28  POPC      C29            -6.3259119864      -26.8884513466        8.2254188255  MEMB      28              0.0000000000
      3682        28  POPC      H91            -6.7385822542      -26.6509633896        9.2170354862  MEMB      28              0.0000000000
      3683        28  POPC      C210           -5.5836626522      -26.0760507527        7.5324935342  MEMB      28              0.0000000000
      3684        28  POPC      H101           -5.1297396914      -25.2595778199        8.1132912987  MEMB      28              0.0000000000
      3685        28  POPC      C211           -5.1952580333      -26.2635827607        6.0715269224  MEMB      28              0.0000000000
      3686        28  POPC      H11R           -5.3623213426      -27.3384398994        5.8454893931  MEMB      28              0.0000000000
      3687        28  POPC      H11S           -4.0921610962      -26.1313048481        6.0709497245  MEMB      28              0.0000000000
      3688        28  POPC      C212           -5.9449735980      -25.3379116047        5.1526263926  MEMB      28              0.0000000000
      3689        28  POPC      H12R           -5.6290692980      -24.3115905105        5.4375649494  MEMB      28              0.0000000000
      3690        28  POPC      H12S           -7.0469547906      -25.4212092107        5.2667307818  MEMB      28              0.0000000000
      3691        28  POPC      C213           -5.5626192954      -25.5347847141        3.6463565741  MEMB      28              0.0000000000
      3692        28  POPC      H13R           -4.5085958662      -25.2695339214        3.4161444256  MEMB      28              0.0000000000
      3693        28  POPC      H13S           -6.1984723029      -24.8695471168        3.0238859733  MEMB      28              0.0000000000
      3694        28  POPC      C214           -5.7254111739      -26.9261547870        3.1053871183  MEMB      28              0.0000000000
      3695        28  POPC      H14R           -5.2768692004      -27.7037645047        3.7599522808  MEMB      28              0.0000000000
      3696        28  POPC      H14S           -5.3625217267      -26.8528102303        2.0578900046  MEMB      28              0.0000000000
      3697        28  POPC      C215           -7.1637948083      -27.4613523563        2.9545698901  MEMB      28              0.0000000000
      3698        28  POPC      H15R           -7.7178262521      -27.5343347867        3.9148017543  MEMB      28              0.0000000000
      3699        28  POPC      H15S           -7.0602491199      -28.4913543936        2.5512153374  MEMB      28              0.0000000000
      3700        28  POPC      C216           -8.0787355600      -26.6620745019        1.9819872024  MEMB      28              0.0000000000
      3701        28  POPC      H16R           -7.6324399137      -26.6694819386        0.9645961778  MEMB      28              0.0000000000
      3702        28  POPC      H16S           -8.1861946518      -25.6056080211        2.3085647244  MEMB      28              0.0000000000
      3703        28  POPC      C217           -9.4891184706      -27.2869635340        1.8197805688  MEMB      28              0.0000000000
      3704        28  POPC      H17R           -9.4334284762      -28.3203053879        1.4155245461  MEMB      28              0.0000000000
      3705        28  POPC      H17S           -9.9806036823      -26.7825113271        0.9605416979  MEMB      28              0.0000000000
      3706        28  POPC      C218          -10.5183367423      -27.1937840821        2.9993401161  MEMB      28              0.0000000000
      3707        28  POPC      H18R          -10.4746402943      -26.1334049752        3.3279858580  MEMB      28              0.0000000000
      3708        28  POPC      H18S          -10.1453934220      -27.8449860567        3.8185908369  MEMB      28              0.0000000000
      3709        28  POPC      H18T          -11.5451217090      -27.5909911160        2.8501441952  MEMB      28              0.0000000000
      3710        28  POPC      C33            -2.6125487736      -28.7422267939       13.0965882220  MEMB      28              0.0000000000
      3711        28  POPC      H3X            -2.7250614107      -27.7398049660       12.6309574079  MEMB      28              0.0000000000
      3712        28  POPC      H3Y            -3.6426302035      -29.0597334115       13.3657398779  MEMB      28              0.0000000000
      3713        28  POPC      C34            -1.9143861241      -29.5864612316       12.0035856332  MEMB      28              0.0000000000
      3714        28  POPC      H4X            -1.6841029515      -30.6193562767       12.3418435834  MEMB      28              0.0000000000
      3715        28  POPC      H4Y            -0.8918883286      -29.2517716942       11.7264540912  MEMB      28              0.0000000000
      3716        28  POPC      C35            -2.7888983793      -29.7754119150       10.7070756740  MEMB      28              0.0000000000
      3717        28  POPC      H5X            -3.1858350482      -28.7686484679       10.4557002302  MEMB      28              0.0000000000
      3718        28  POPC      H5Y            -3.6174253270      -30.4732060380       10.9539503623  MEMB      28              0.0000000000
      3719        28  POPC      C36            -2.1247980535      -30.4248180574        9.4748852594  MEMB      28              0.0000000000
      3720        28  POPC      H6X            -1.8927660998      -31.4525155956        9.8274756780  MEMB      28              0.0000000000
      3721        28  POPC      H6Y            -1.1853364712      -29.8971678786        9.2041106901  MEMB      28              0.0000000000
      3722        28  POPC      C37            -2.9789108638      -30.3868953281        8.0968482306  MEMB      28              0.0000000000
      3723        28  POPC      H7X            -3.2483286938      -29.3155664207        7.9785720579  MEMB      28              0.0000000000
      3724        28  POPC      H7Y            -3.9201500921      -30.9671483046        8.2049972241  MEMB      28              0.0000000000
      3725        28  POPC      C38            -2.3332316800      -30.9561249627        6.8766611925  MEMB      28              0.0000000000
      3726        28  POPC      H8X            -2.1478300275      -32.0398571267        7.0362613946  MEMB      28              0.0000000000
      3727        28  POPC      H8Y            -1.3619429181      -30.4931718473        6.5999050667  MEMB      28              0.0000000000
      3728        28  POPC      C39            -3.2154853135      -30.9715146689        5.6414697510  MEMB      28              0.0000000000
      3729        28  POPC      H9X            -3.7171898780      -29.9921629735        5.4882256593  MEMB      28              0.0000000000
      3730        28  POPC      H9Y            -3.9867018828      -31.7706928548        5.6707947205  MEMB      28              0.0000000000
      3731        28  POPC      C310           -2.3527956010      -31.2475025388        4.4249606725  MEMB      28              0.0000000000
      3732        28  POPC      H10X           -1.6958964447      -32.1380355755        4.5237299058  MEMB      28              0.0000000000
      3733        28  POPC      H10Y           -1.6661830745      -30.3742582169        4.4068371562  MEMB      28              0.0000000000
      3734        28  POPC      C311           -3.0364933005      -31.2771585949        3.0777954128  MEMB      28              0.0000000000
      3735        28  POPC      H11X           -3.4737361577      -32.2981264115        3.0501459912  MEMB      28              0.0000000000
      3736        28  POPC      H11Y           -2.3018187489      -31.1945600525        2.2484869090  MEMB      28              0.0000000000
      3737        28  POPC      C312           -4.1844780550      -30.1872196777        2.8022777222  MEMB      28              0.0000000000
      3738        28  POPC      H12X           -3.7184828319      -29.2177702148        3.0803740672  MEMB      28              0.0000000000
      3739        28  POPC      H12Y           -5.0172244113      -30.2883166041        3.5307238641  MEMB      28              0.0000000000
      3740        28  POPC      C313           -4.7887301682      -30.2488707343        1.3463943149  MEMB      28              0.0000000000
      3741        28  POPC      H13X           -5.7409783552      -29.6794990107        1.4043622415  MEMB      28              0.0000000000
      3742        28  POPC      H13Y           -5.0114320539      -31.3017275110        1.0703196870  MEMB      28              0.0000000000
      3743        28  POPC      C314           -3.9968390584      -29.6570848249        0.2445586410  MEMB      28              0.0000000000
      3744        28  POPC      H14X           -3.1777537839      -30.3451029922       -0.0555275012  MEMB      28              0.0000000000
      3745        28  POPC      H14Y           -3.5359248461      -28.6754426046        0.4859246351  MEMB      28              0.0000000000
      3746        28  POPC      C315           -4.7852767227      -29.4369506079       -1.0125485880  MEMB      28              0.0000000000
      3747        28  POPC      H15X           -4.4034863834      -28.5642457026       -1.5843375904  MEMB      28              0.0000000000
      3748        28  POPC      H15Y           -5.8728996576      -29.2578700390       -0.8735247655  MEMB      28              0.0000000000
      3749        28  POPC      C316           -4.4742452856      -30.4882389170       -2.1035756769  MEMB      28              0.0000000000
      3750        28  POPC      H16X           -3.4735219233      -30.2696619064       -2.5338038698  MEMB      28              0.0000000000
      3751        28  POPC      H16Y           -5.1953293739      -30.3458543716       -2.9366924969  MEMB      28              0.0000000000
      3752        28  POPC      H16Z           -4.5190285641      -31.4563473883       -1.5603600799  MEMB      28              0.0000000000
      3753        29  POPC      N             -18.3076609791        6.8169424018       19.5702530404  MEMB      29              0.0000000000
      3754        29  POPC      C12           -19.5662752394        6.2132199374       20.1129603481  MEMB      29              0.0000000000
      3755        29  POPC      H12A          -20.0611397905        7.0762430791       20.5333175187  MEMB      29              0.0000000000
      3756        29  POPC      H12B          -19.3596615821        5.5138263640       20.9095528342  MEMB      29              0.0000000000
      3757        29  POPC      C13           -18.3149879913        8.2849433296       19.1309881103  MEMB      29              0.0000000000
      3758        29  POPC      H13A          -17.2893397213        8.6231545594       19.1233351851  MEMB      29              0.0000000000
      3759        29  POPC      H13B          -18.7573231641        8.5368695920       18.1784794757  MEMB      29              0.0000000000
      3760        29  POPC      H13C          -18.8847081400        8.7436710242       19.9255873099  MEMB      29              0.0000000000
      3761        29  POPC      C14           -17.3119963308        6.7781819579       20.6889847019  MEMB      29              0.0000000000
      3762        29  POPC      H14A          -17.3116103579        5.7591662764       21.0467653568  MEMB      29              0.0000000000
      3763        29  POPC      H14B          -16.3988694977        7.2677395260       20.3841360611  MEMB      29              0.0000000000
      3764        29  POPC      H14C          -17.6902617348        7.4251901526       21.4666065528  MEMB      29              0.0000000000
      3765        29  POPC      C15           -17.8372315737        6.0700132462       18.4111455948  MEMB      29              0.0000000000
      3766        29  POPC      H15A          -17.8615454752        5.0570687341       18.7849804299  MEMB      29              0.0000000000
      3767        29  POPC      H15B          -16.9064180925        6.4980503079       18.0694286145  MEMB      29              0.0000000000
      3768        29  POPC      H15C          -18.5511828108        6.1554301574       17.6053059908  MEMB      29              0.0000000000
      3769        29  POPC      C11           -20.5555338744        5.5228709140       19.1285737966  MEMB      29              0.0000000000
      3770        29  POPC      H11A          -21.3821835089        5.3295031676       19.8452188689  MEMB      29              0.0000000000
      3771        29  POPC      H11B          -20.2169315343        4.5018811715       18.8506362763  MEMB      29              0.0000000000
      3772        29  POPC      P             -22.0865394541        7.5228396091       18.4644936073  MEMB      29              0.0000000000
      3773        29  POPC      O13           -21.4873507781        8.3027099558       19.5896642412  MEMB      29              0.0000000000
      3774        29  POPC      O14           -23.4772238172        7.0088046340       18.6443879808  MEMB      29              0.0000000000
      3775        29  POPC      O12           -21.0386444086        6.3966726234       18.0239717501  MEMB      29              0.0000000000
      3776        29  POPC      O11           -22.0507371572        8.5181203411       17.2345768245  MEMB      29              0.0000000000
      3777        29  POPC      C1            -20.7800590786        8.9083742197       16.6426593828  MEMB      29              0.0000000000
      3778        29  POPC      HA            -19.8744864902        8.3880589246       17.0215143946  MEMB      29              0.0000000000
      3779        29  POPC      HB            -20.6894971943       10.0078303284       16.7742488573  MEMB      29              0.0000000000
      3780        29  POPC      C2            -20.9099551286        8.6061450157       15.1395074675  MEMB      29              0.0000000000
      3781        29  POPC      HS            -21.8444654104        9.0318142219       14.7154586375  MEMB      29              0.0000000000
      3782        29  POPC      O21           -21.0570283717        7.1285214693       15.1550336207  MEMB      29              0.0000000000
      3783        29  POPC      C21           -22.1327463833        6.6348060388       14.6314088703  MEMB      29              0.0000000000
      3784        29  POPC      O22           -23.0550845892        7.2206358571       14.0591004523  MEMB      29              0.0000000000
      3785        29  POPC      C22           -22.0597091477        5.0937740234       14.7401292154  MEMB      29              0.0000000000
      3786        29  POPC      H2R           -22.1895123616        4.8246684918       15.8102013938  MEMB      29              0.0000000000
      3787        29  POPC      H2S           -21.0886711363        4.6983502134       14.3726431106  MEMB      29              0.0000000000
      3788        29  POPC      C3            -19.7321796121        8.9641711779       14.1742617230  MEMB      29              0.0000000000
      3789        29  POPC      HX            -18.7644743915        8.6866784918       14.6442250710  MEMB      29              0.0000000000
      3790        29  POPC      HY            -19.7514515248       10.0739190663       14.1251769150  MEMB      29              0.0000000000
      3791        29  POPC      O31           -19.9076550313        8.4289181572       12.8389794558  MEMB      29              0.0000000000
      3792        29  POPC      C31           -19.3526886243        9.1044710353       11.8934870164  MEMB      29              0.0000000000
      3793        29  POPC      O32           -18.5724478818       10.0438954091       12.0576280436  MEMB      29              0.0000000000
      3794        29  POPC      C32           -19.6651584893        8.3509103012       10.6018877293  MEMB      29              0.0000000000
      3795        29  POPC      H2X           -20.7147487252        8.6314720034       10.3695811616  MEMB      29              0.0000000000
      3796        29  POPC      H2Y           -19.4299822413        7.2715106176       10.7198259595  MEMB      29              0.0000000000
      3797        29  POPC      C23           -23.1728508094        4.4100921657       13.9314127579  MEMB      29              0.0000000000
      3798        29  POPC      H3R           -23.9896561295        5.1531787414       13.8090514274  MEMB      29              0.0000000000
      3799        29  POPC      H3S           -23.4135868106        3.4432495294       14.4229227040  MEMB      29              0.0000000000
      3800        29  POPC      C24           -22.7104343552        4.0936359868       12.5077895495  MEMB      29              0.0000000000
      3801        29  POPC      H4R           -23.3925165543        3.4017306558       11.9689469792  MEMB      29              0.0000000000
      3802        29  POPC      H4S           -21.6852457477        3.6716104539       12.5799253676  MEMB      29              0.0000000000
      3803        29  POPC      C25           -22.6341109919        5.3047591970       11.5512985286  MEMB      29              0.0000000000
      3804        29  POPC      H5R           -22.1053247159        6.2408214969       11.8314653863  MEMB      29              0.0000000000
      3805        29  POPC      H5S           -23.6441085314        5.5923517515       11.1886461308  MEMB      29              0.0000000000
      3806        29  POPC      C26           -21.9782001371        4.9768814735       10.2039713080  MEMB      29              0.0000000000
      3807        29  POPC      H6R           -22.2341785034        3.9265723086        9.9477549641  MEMB      29              0.0000000000
      3808        29  POPC      H6S           -20.8675645002        5.0018611467       10.1903521063  MEMB      29              0.0000000000
      3809        29  POPC      C27           -22.5392663527        5.9669084961        9.1158610190  MEMB      29              0.0000000000
      3810        29  POPC      H7R           -22.4360389833        7.0239647956        9.4418925214  MEMB      29              0.0000000000
      3811        29  POPC      H7S           -23.6290561605        5.7526857582        9.0877946569  MEMB      29              0.0000000000
      3812        29  POPC      C28           -21.8310105003        5.7422679321        7.7616184034  MEMB      29              0.0000000000
      3813        29  POPC      H8R           -20.7473538082        5.9689583017        7.8544653751  MEMB      29              0.0000000000
      3814        29  POPC      H8S           -22.3109914462        6.4786721247        7.0821714797  MEMB      29              0.0000000000
      3815        29  POPC      C29           -21.8662064863        4.4696332874        6.9355894588  MEMB      29              0.0000000000
      3816        29  POPC      H91           -21.5843449556        3.6024342183        7.5508290505  MEMB      29              0.0000000000
      3817        29  POPC      C210          -22.0026900740        4.1611944116        5.6417832791  MEMB      29              0.0000000000
      3818        29  POPC      H101          -21.8742585878        3.1268221516        5.2902450745  MEMB      29              0.0000000000
      3819        29  POPC      C211          -22.1614398740        5.1503998585        4.4722359836  MEMB      29              0.0000000000
      3820        29  POPC      H11R          -21.4262205252        5.0212173056        3.6493840317  MEMB      29              0.0000000000
      3821        29  POPC      H11S          -22.1120344995        6.1972851526        4.8408983769  MEMB      29              0.0000000000
      3822        29  POPC      C212          -23.5626600402        4.7874318662        3.8281452202  MEMB      29              0.0000000000
      3823        29  POPC      H12R          -24.3965418499        4.8994787870        4.5536856303  MEMB      29              0.0000000000
      3824        29  POPC      H12S          -23.6806610982        3.7762159602        3.3833542301  MEMB      29              0.0000000000
      3825        29  POPC      C213          -23.8735971598        5.8577704637        2.7815626562  MEMB      29              0.0000000000
      3826        29  POPC      H13R          -24.8571595120        5.6008456970        2.3333262554  MEMB      29              0.0000000000
      3827        29  POPC      H13S          -23.0603727947        5.7710754504        2.0295842292  MEMB      29              0.0000000000
      3828        29  POPC      C214          -23.9794013729        7.2928126515        3.2416744483  MEMB      29              0.0000000000
      3829        29  POPC      H14R          -22.9091242280        7.5698506757        3.3515736072  MEMB      29              0.0000000000
      3830        29  POPC      H14S          -24.5249321494        7.3055422513        4.2094327449  MEMB      29              0.0000000000
      3831        29  POPC      C215          -24.7551310512        8.1575199090        2.2449139253  MEMB      29              0.0000000000
      3832        29  POPC      H15R          -24.9533182633        9.1811230508        2.6286837816  MEMB      29              0.0000000000
      3833        29  POPC      H15S          -25.7198526753        7.6393310604        2.0575263742  MEMB      29              0.0000000000
      3834        29  POPC      C216          -24.1673747110        8.3866826162        0.8492605997  MEMB      29              0.0000000000
      3835        29  POPC      H16R          -24.8193010427        8.9020937211        0.1119252220  MEMB      29              0.0000000000
      3836        29  POPC      H16S          -24.0513887228        7.3589016723        0.4436331594  MEMB      29              0.0000000000
      3837        29  POPC      C217          -22.7589918158        9.0373420238        0.8769002044  MEMB      29              0.0000000000
      3838        29  POPC      H17R          -22.3838667046        9.0808744903       -0.1679479444  MEMB      29              0.0000000000
      3839        29  POPC      H17S          -22.0865350590        8.6157404541        1.6543153191  MEMB      29              0.0000000000
      3840        29  POPC      C218          -22.7165100439       10.5107096249        1.2861328827  MEMB      29              0.0000000000
      3841        29  POPC      H18R          -23.4097476373       11.2073639302        0.7680443755  MEMB      29              0.0000000000
      3842        29  POPC      H18S          -21.6761861685       10.8487382028        1.0917526306  MEMB      29              0.0000000000
      3843        29  POPC      H18T          -22.8528050023       10.5713950250        2.3870708538  MEMB      29              0.0000000000
      3844        29  POPC      C33           -18.9115355862        8.7294660448        9.2872591587  MEMB      29              0.0000000000
      3845        29  POPC      H3X           -19.3392236974        8.0103529952        8.5563139530  MEMB      29              0.0000000000
      3846        29  POPC      H3Y           -17.8439564592        8.6026024680        9.5674409936  MEMB      29              0.0000000000
      3847        29  POPC      C34           -19.0489187014       10.2084775236        8.8112183910  MEMB      29              0.0000000000
      3848        29  POPC      H4X           -18.4796010500       10.8730103112        9.4957577531  MEMB      29              0.0000000000
      3849        29  POPC      H4Y           -20.1253194170       10.4794412059        8.8587689787  MEMB      29              0.0000000000
      3850        29  POPC      C35           -18.5629357894       10.3699385276        7.3832096405  MEMB      29              0.0000000000
      3851        29  POPC      H5X           -17.6597441617        9.7511687542        7.1942923579  MEMB      29              0.0000000000
      3852        29  POPC      H5Y           -18.2839640087       11.4447165944        7.3464967417  MEMB      29              0.0000000000
      3853        29  POPC      C36           -19.7316055571       10.0318021556        6.3814208858  MEMB      29              0.0000000000
      3854        29  POPC      H6X           -20.1156891184       10.9568937285        5.9007904129  MEMB      29              0.0000000000
      3855        29  POPC      H6Y           -20.5743010195        9.7588467933        7.0520039555  MEMB      29              0.0000000000
      3856        29  POPC      C37           -19.5619329455        8.7504794431        5.5697697148  MEMB      29              0.0000000000
      3857        29  POPC      H7X           -20.4611609629        8.5605138742        4.9455722562  MEMB      29              0.0000000000
      3858        29  POPC      H7Y           -19.5094914141        7.9162529877        6.3016422540  MEMB      29              0.0000000000
      3859        29  POPC      C38           -18.2391979834        8.7264141235        4.6996276082  MEMB      29              0.0000000000
      3860        29  POPC      H8X           -18.0483777061        7.6698080024        4.4141590131  MEMB      29              0.0000000000
      3861        29  POPC      H8Y           -17.4808198630        8.9487113461        5.4805032746  MEMB      29              0.0000000000
      3862        29  POPC      C39           -18.4160823928        9.5456549036        3.4520177074  MEMB      29              0.0000000000
      3863        29  POPC      H9X           -18.7062027370       10.5366659717        3.8619535831  MEMB      29              0.0000000000
      3864        29  POPC      H9Y           -19.1778581119        9.1314469992        2.7574303370  MEMB      29              0.0000000000
      3865        29  POPC      C310          -17.0795210422        9.6703961198        2.6561562218  MEMB      29              0.0000000000
      3866        29  POPC      H10X          -16.4113777024       10.1342656890        3.4129459731  MEMB      29              0.0000000000
      3867        29  POPC      H10Y          -17.2790701495       10.3681542209        1.8149448358  MEMB      29              0.0000000000
      3868        29  POPC      C311          -16.6016691470        8.3674482675        2.0407460216  MEMB      29              0.0000000000
      3869        29  POPC      H11X          -16.2486847219        7.7400495915        2.8869695629  MEMB      29              0.0000000000
      3870        29  POPC      H11Y          -15.8024355221        8.5683678100        1.2956434741  MEMB      29              0.0000000000
      3871        29  POPC      C312          -17.6421174601        7.5526581471        1.2936103004  MEMB      29              0.0000000000
      3872        29  POPC      H12X          -17.9619057856        8.1022893796        0.3825890002  MEMB      29              0.0000000000
      3873        29  POPC      H12Y          -18.4906875833        7.3555107431        1.9830913314  MEMB      29              0.0000000000
      3874        29  POPC      C313          -16.9995569058        6.3367968102        0.7332679883  MEMB      29              0.0000000000
      3875        29  POPC      H13X          -16.8075192782        5.6216556921        1.5615289764  MEMB      29              0.0000000000
      3876        29  POPC      H13Y          -16.0182340844        6.5820540113        0.2737290034  MEMB      29              0.0000000000
      3877        29  POPC      C314          -17.8039214035        5.5160727533       -0.2946065094  MEMB      29              0.0000000000
      3878        29  POPC      H14X          -17.0989587299        4.8760411370       -0.8670643235  MEMB      29              0.0000000000
      3879        29  POPC      H14Y          -18.2690801378        6.2125298779       -1.0246026549  MEMB      29              0.0000000000
      3880        29  POPC      C315          -18.9164334631        4.6109094162        0.3085284271  MEMB      29              0.0000000000
      3881        29  POPC      H15X          -19.3329661308        5.1115643157        1.2086218046  MEMB      29              0.0000000000
      3882        29  POPC      H15Y          -18.3945398285        3.7411602927        0.7618326321  MEMB      29              0.0000000000
      3883        29  POPC      C316          -20.0459545037        4.1181192716       -0.5576066285  MEMB      29              0.0000000000
      3884        29  POPC      H16X          -20.7218902947        4.9793831196       -0.7464355817  MEMB      29              0.0000000000
      3885        29  POPC      H16Y          -20.6425216338        3.3873825732        0.0292935414  MEMB      29              0.0000000000
      3886        29  POPC      H16Z          -19.8035428138        3.7901635609       -1.5910481330  MEMB      29              0.0000000000
      3887        30  POPC      N              25.8142296618       14.0047002004       20.9062985447  MEMB      30              0.0000000000
      3888        30  POPC      C12            26.4518322874       12.6980310035       20.3893855093  MEMB      30              0.0000000000
      3889        30  POPC      H12A           26.0153811156       11.9525239838       21.0375595125  MEMB      30              0.0000000000
      3890        30  POPC      H12B           27.5225999901       12.7755786467       20.5070412882  MEMB      30              0.0000000000
      3891        30  POPC      C13            26.0670440984       14.0636671096       22.4022275974  MEMB      30              0.0000000000
      3892        30  POPC      H13A           27.1349858140       14.1431918706       22.5421426265  MEMB      30              0.0000000000
      3893        30  POPC      H13B           25.6154391466       14.9312542464       22.8602076706  MEMB      30              0.0000000000
      3894        30  POPC      H13C           25.6811819200       13.1185733569       22.7548010655  MEMB      30              0.0000000000
      3895        30  POPC      C14            26.4326173605       15.2403975886       20.3574877354  MEMB      30              0.0000000000
      3896        30  POPC      H14A           25.9298036777       16.1555824406       20.6331957573  MEMB      30              0.0000000000
      3897        30  POPC      H14B           27.4638974508       15.3335840789       20.6643718084  MEMB      30              0.0000000000
      3898        30  POPC      H14C           26.4082744219       15.1067509294       19.2860653105  MEMB      30              0.0000000000
      3899        30  POPC      C15            24.3685596408       13.9368792057       20.5194957797  MEMB      30              0.0000000000
      3900        30  POPC      H15A           24.3290632297       13.7374363567       19.4588061140  MEMB      30              0.0000000000
      3901        30  POPC      H15B           24.0135737152       14.9484722267       20.6501274036  MEMB      30              0.0000000000
      3902        30  POPC      H15C           23.8867505037       13.1671069510       21.1040559735  MEMB      30              0.0000000000
      3903        30  POPC      C11            26.2922280726       12.3179949438       18.8518201256  MEMB      30              0.0000000000
      3904        30  POPC      H11A           27.0317919792       11.5051922952       18.6883638107  MEMB      30              0.0000000000
      3905        30  POPC      H11B           26.6083656347       13.1671941749       18.2089836048  MEMB      30              0.0000000000
      3906        30  POPC      P              24.3200163534       12.0877905504       17.0799376084  MEMB      30              0.0000000000
      3907        30  POPC      O13            23.5281127607       13.3412667490       17.1514088335  MEMB      30              0.0000000000
      3908        30  POPC      O14            23.5417354031       10.9277439657       16.6656184528  MEMB      30              0.0000000000
      3909        30  POPC      O12            24.9976696317       11.7898641998       18.5287904348  MEMB      30              0.0000000000
      3910        30  POPC      O11            25.5600594320       12.1984474872       16.1475293809  MEMB      30              0.0000000000
      3911        30  POPC      C1             26.3001628092       13.3494736319       15.7185455382  MEMB      30              0.0000000000
      3912        30  POPC      HA             27.3682160137       13.1710929597       15.9670687295  MEMB      30              0.0000000000
      3913        30  POPC      HB             25.9276008810       14.2617502777       16.2316439878  MEMB      30              0.0000000000
      3914        30  POPC      C2             26.1519174690       13.4282029639       14.2015114039  MEMB      30              0.0000000000
      3915        30  POPC      HS             26.4303257913       14.4310960202       13.8129046669  MEMB      30              0.0000000000
      3916        30  POPC      O21            24.8883662220       13.1307384964       13.7124550415  MEMB      30              0.0000000000
      3917        30  POPC      C21            23.8376463547       13.9787751726       13.7584869411  MEMB      30              0.0000000000
      3918        30  POPC      O22            23.8772008613       15.0747101318       14.3495532978  MEMB      30              0.0000000000
      3919        30  POPC      C22            22.6709539232       13.3425318446       12.9767154368  MEMB      30              0.0000000000
      3920        30  POPC      H2R            21.7141548805       13.5125934397       13.5151719400  MEMB      30              0.0000000000
      3921        30  POPC      H2S            22.8438850859       12.2463545676       12.9236939731  MEMB      30              0.0000000000
      3922        30  POPC      C3             27.1233892193       12.4166838160       13.6388236561  MEMB      30              0.0000000000
      3923        30  POPC      HX             26.9371167253       11.4559671280       14.1647962952  MEMB      30              0.0000000000
      3924        30  POPC      HY             28.1491881536       12.7474355050       13.9083808913  MEMB      30              0.0000000000
      3925        30  POPC      O31            27.0364216186       12.3106958015       12.1980169770  MEMB      30              0.0000000000
      3926        30  POPC      C31            26.3442473556       11.3724304463       11.6702240860  MEMB      30              0.0000000000
      3927        30  POPC      O32            25.6538654649       10.5302481841       12.2746085603  MEMB      30              0.0000000000
      3928        30  POPC      C32            26.5881994816       11.3489376008       10.1068411121  MEMB      30              0.0000000000
      3929        30  POPC      H2X            27.6624904889       11.5300225944        9.8890612125  MEMB      30              0.0000000000
      3930        30  POPC      H2Y            26.0669066997       12.1982715169        9.6157126653  MEMB      30              0.0000000000
      3931        30  POPC      C23            22.6343840710       13.9430856902       11.5935682866  MEMB      30              0.0000000000
      3932        30  POPC      H3R            22.4611361816       15.0400135278       11.6260557924  MEMB      30              0.0000000000
      3933        30  POPC      H3S            21.8026266463       13.4255165035       11.0695239068  MEMB      30              0.0000000000
      3934        30  POPC      C24            23.9208988804       13.7687993390       10.7484855868  MEMB      30              0.0000000000
      3935        30  POPC      H4R            24.2639672448       12.7191781450       10.8706345894  MEMB      30              0.0000000000
      3936        30  POPC      H4S            24.6870950288       14.4559726306       11.1668843146  MEMB      30              0.0000000000
      3937        30  POPC      C25            23.4967451343       14.0327040675        9.3382787856  MEMB      30              0.0000000000
      3938        30  POPC      H5R            22.4576444665       13.6863333713        9.1522201106  MEMB      30              0.0000000000
      3939        30  POPC      H5S            24.2093623849       13.6214964500        8.5916817382  MEMB      30              0.0000000000
      3940        30  POPC      C26            23.4768154491       15.5830147204        8.8704568752  MEMB      30              0.0000000000
      3941        30  POPC      H6R            22.7872263363       16.1074167741        9.5660073640  MEMB      30              0.0000000000
      3942        30  POPC      H6S            23.1630634934       15.6588046186        7.8073777101  MEMB      30              0.0000000000
      3943        30  POPC      C27            24.7241264284       16.4235711572        9.1095393819  MEMB      30              0.0000000000
      3944        30  POPC      H7R            24.7439212009       16.3961958830       10.2200263239  MEMB      30              0.0000000000
      3945        30  POPC      H7S            24.3996136819       17.4561354773        8.8588920852  MEMB      30              0.0000000000
      3946        30  POPC      C28            25.9177448615       16.0735834364        8.2305777138  MEMB      30              0.0000000000
      3947        30  POPC      H8R            25.8201749938       14.9974088576        7.9724115094  MEMB      30              0.0000000000
      3948        30  POPC      H8S            26.9243841685       16.2938842002        8.6458679545  MEMB      30              0.0000000000
      3949        30  POPC      C29            25.7479947793       16.7789830793        6.9041533124  MEMB      30              0.0000000000
      3950        30  POPC      H91            26.0205884728       17.8434212614        6.8525342992  MEMB      30              0.0000000000
      3951        30  POPC      C210           25.2640066042       16.2772132388        5.7051793364  MEMB      30              0.0000000000
      3952        30  POPC      H101           25.1739753787       17.0210676152        4.8998377758  MEMB      30              0.0000000000
      3953        30  POPC      C211           24.7612097502       14.8977345024        5.3793149407  MEMB      30              0.0000000000
      3954        30  POPC      H11R           23.7160803007       15.0257437289        5.0248582027  MEMB      30              0.0000000000
      3955        30  POPC      H11S           24.6877657950       14.2839503181        6.3024593338  MEMB      30              0.0000000000
      3956        30  POPC      C212           25.6617364287       14.2563437840        4.3418316457  MEMB      30              0.0000000000
      3957        30  POPC      H12R           25.7589987182       14.9395067755        3.4711132658  MEMB      30              0.0000000000
      3958        30  POPC      H12S           25.2372728590       13.2498552764        4.1390201841  MEMB      30              0.0000000000
      3959        30  POPC      C213           27.1158152878       14.0133433132        4.9301524052  MEMB      30              0.0000000000
      3960        30  POPC      H13R           27.0173209488       13.3180145724        5.7910454240  MEMB      30              0.0000000000
      3961        30  POPC      H13S           27.6917102903       14.9079622203        5.2500320636  MEMB      30              0.0000000000
      3962        30  POPC      C214           28.0725211276       13.4360144970        3.8706922868  MEMB      30              0.0000000000
      3963        30  POPC      H14R           29.0835852077       13.6575589023        4.2744101012  MEMB      30              0.0000000000
      3964        30  POPC      H14S           27.7810136745       14.1564518002        3.0767693061  MEMB      30              0.0000000000
      3965        30  POPC      C215           27.9519455069       11.8913493750        3.6297117837  MEMB      30              0.0000000000
      3966        30  POPC      H15R           26.8905166486       11.5919027676        3.4954667535  MEMB      30              0.0000000000
      3967        30  POPC      H15S           28.2996300090       11.3549642656        4.5384067428  MEMB      30              0.0000000000
      3968        30  POPC      C216           28.8100090112       11.4162752402        2.5086307985  MEMB      30              0.0000000000
      3969        30  POPC      H16R           29.8312927862       11.3255184752        2.9364911770  MEMB      30              0.0000000000
      3970        30  POPC      H16S           28.7139440906       12.1327322668        1.6649606352  MEMB      30              0.0000000000
      3971        30  POPC      C217           28.3724104030        9.9600413700        2.0598601258  MEMB      30              0.0000000000
      3972        30  POPC      H17R           28.1322427207        9.3838344851        2.9788945138  MEMB      30              0.0000000000
      3973        30  POPC      H17S           29.1462542068        9.3468764907        1.5504317917  MEMB      30              0.0000000000
      3974        30  POPC      C218           27.1787780257       10.1937814210        1.1953257819  MEMB      30              0.0000000000
      3975        30  POPC      H18R           26.5947398127        9.2551720326        1.0847220963  MEMB      30              0.0000000000
      3976        30  POPC      H18S           27.5310296525       10.4945105707        0.1854716052  MEMB      30              0.0000000000
      3977        30  POPC      H18T           26.3995674787       10.8849065573        1.5819749226  MEMB      30              0.0000000000
      3978        30  POPC      C33            26.2322827916        9.9384760207        9.5229314044  MEMB      30              0.0000000000
      3979        30  POPC      H3X            25.2363257043        9.6245894300        9.9022273696  MEMB      30              0.0000000000
      3980        30  POPC      H3Y            27.0034268596        9.2279104695        9.8900198833  MEMB      30              0.0000000000
      3981        30  POPC      C34            26.2845786784       10.0228456001        7.9775642622  MEMB      30              0.0000000000
      3982        30  POPC      H4X            26.1723483124        8.9527885945        7.7006111845  MEMB      30              0.0000000000
      3983        30  POPC      H4Y            27.2227052404       10.4518121413        7.5649783502  MEMB      30              0.0000000000
      3984        30  POPC      C35            25.2215100962       10.8538968078        7.2443089768  MEMB      30              0.0000000000
      3985        30  POPC      H5X            25.5822577222       10.9324883231        6.1964508347  MEMB      30              0.0000000000
      3986        30  POPC      H5Y            25.3049531590       11.8624310535        7.7028030972  MEMB      30              0.0000000000
      3987        30  POPC      C36            23.7641634209       10.3547330491        7.4448672704  MEMB      30              0.0000000000
      3988        30  POPC      H6X            23.5178462755       10.2117156836        8.5187358598  MEMB      30              0.0000000000
      3989        30  POPC      H6Y            23.5501516944        9.3745210215        6.9676838258  MEMB      30              0.0000000000
      3990        30  POPC      C37            22.8368248963       11.3003059121        6.7534593756  MEMB      30              0.0000000000
      3991        30  POPC      H7X            22.9314771246       12.3405272057        7.1320112717  MEMB      30              0.0000000000
      3992        30  POPC      H7Y            21.8467369036       11.1258342513        7.2263294320  MEMB      30              0.0000000000
      3993        30  POPC      C38            22.6371811396       11.0210156067        5.2707000040  MEMB      30              0.0000000000
      3994        30  POPC      H8X            22.0624483940       10.0925645992        5.0658047251  MEMB      30              0.0000000000
      3995        30  POPC      H8Y            23.6547087715       10.9364940926        4.8327332473  MEMB      30              0.0000000000
      3996        30  POPC      C39            21.9085697914       12.1916521007        4.5574374894  MEMB      30              0.0000000000
      3997        30  POPC      H9X            22.4597710336       13.1212198657        4.8151223713  MEMB      30              0.0000000000
      3998        30  POPC      H9Y            20.9409377702       12.3997431848        5.0621229443  MEMB      30              0.0000000000
      3999        30  POPC      C310           21.7952678915       12.2543401856        3.0092266121  MEMB      30              0.0000000000
      4000        30  POPC      H10X           21.0323543112       13.0349636710        2.8020765677  MEMB      30              0.0000000000
      4001        30  POPC      H10Y           21.3635421753       11.3054101621        2.6252135631  MEMB      30              0.0000000000
      4002        30  POPC      C311           23.0493341047       12.6124939794        2.3158403594  MEMB      30              0.0000000000
      4003        30  POPC      H11X           23.8366145970       11.9141346890        2.6719358899  MEMB      30              0.0000000000
      4004        30  POPC      H11Y           23.4387919286       13.6374879601        2.4948115387  MEMB      30              0.0000000000
      4005        30  POPC      C312           22.9146919818       12.4896551307        0.8532198712  MEMB      30              0.0000000000
      4006        30  POPC      H12X           22.2767898005       13.2969397021        0.4340613512  MEMB      30              0.0000000000
      4007        30  POPC      H12Y           22.3976484223       11.5148410736        0.7238971650  MEMB      30              0.0000000000
      4008        30  POPC      C313           24.2486751456       12.3647729713        0.1290160789  MEMB      30              0.0000000000
      4009        30  POPC      H13X           24.0655636810       12.0504628715       -0.9207472270  MEMB      30              0.0000000000
      4010        30  POPC      H13Y           24.7720250586       11.4813894048        0.5533485384  MEMB      30              0.0000000000
      4011        30  POPC      C314           25.1222609850       13.6102011472        0.2251759750  MEMB      30              0.0000000000
      4012        30  POPC      H14X           25.6266878737       13.6883881634        1.2119701521  MEMB      30              0.0000000000
      4013        30  POPC      H14Y           24.4136143416       14.4524277084        0.0741954787  MEMB      30              0.0000000000
      4014        30  POPC      C315           26.1752502249       13.7045398885       -0.9113876772  MEMB      30              0.0000000000
      4015        30  POPC      H15X           25.7671664790       13.2780220253       -1.8525952147  MEMB      30              0.0000000000
      4016        30  POPC      H15Y           26.9273159389       12.9163764721       -0.6934050718  MEMB      30              0.0000000000
      4017        30  POPC      C316           26.6315468158       15.0936710612       -1.0897089845  MEMB      30              0.0000000000
      4018        30  POPC      H16X           25.8212223921       15.7144139779       -1.5283132501  MEMB      30              0.0000000000
      4019        30  POPC      H16Y           27.5565899510       15.1712495922       -1.7001182470  MEMB      30              0.0000000000
      4020        30  POPC      H16Z           26.9671966041       15.6393047701       -0.1819954588  MEMB      30              0.0000000000
      4021        31  POPC      N             -25.3360679524       -3.2636359379       18.9323687876  MEMB      31              0.0000000000
      4022        31  POPC      C12           -26.2957338499       -2.0549746801       19.0545031518  MEMB      31              0.0000000000
      4023        31  POPC      H12A          -26.7131117297       -1.9900358363       20.0484743396  MEMB      31              0.0000000000
      4024        31  POPC      H12B          -27.1096172320       -2.2532416290       18.3728258262  MEMB      31              0.0000000000
      4025        31  POPC      C13           -24.1120529107       -2.9434062915       19.7570900164  MEMB      31              0.0000000000
      4026        31  POPC      H13A          -24.4109848201       -2.7022130664       20.7664788658  MEMB      31              0.0000000000
      4027        31  POPC      H13B          -23.4670993424       -3.8095117253       19.7743056192  MEMB      31              0.0000000000
      4028        31  POPC      H13C          -23.5378624013       -2.0677666406       19.4925894156  MEMB      31              0.0000000000
      4029        31  POPC      C14           -26.0603033459       -4.4235471030       19.5106717670  MEMB      31              0.0000000000
      4030        31  POPC      H14A          -26.9718635446       -4.6140077428       18.9636959046  MEMB      31              0.0000000000
      4031        31  POPC      H14B          -25.4869167089       -5.3369850847       19.5677610985  MEMB      31              0.0000000000
      4032        31  POPC      H14C          -26.2441632991       -4.2270273261       20.5566045469  MEMB      31              0.0000000000
      4033        31  POPC      C15           -24.9918733768       -3.5122597900       17.5113225756  MEMB      31              0.0000000000
      4034        31  POPC      H15A          -23.9563595215       -3.2780221748       17.3132221489  MEMB      31              0.0000000000
      4035        31  POPC      H15B          -25.7750194057       -3.1784355045       16.8467599486  MEMB      31              0.0000000000
      4036        31  POPC      H15C          -25.0829943677       -4.5814802877       17.3894009165  MEMB      31              0.0000000000
      4037        31  POPC      C11           -25.7522287999       -0.6908552986       18.6492657461  MEMB      31              0.0000000000
      4038        31  POPC      H11A          -26.6293740505       -0.0247564134       18.5034938424  MEMB      31              0.0000000000
      4039        31  POPC      H11B          -25.3014705027       -0.8382386992       17.6445686604  MEMB      31              0.0000000000
      4040        31  POPC      P             -24.1560395934        1.2594930567       19.1423832400  MEMB      31              0.0000000000
      4041        31  POPC      O13           -22.9113797814        1.3652117027       19.8915122661  MEMB      31              0.0000000000
      4042        31  POPC      O14           -25.1812675751        2.3090141949       19.4823954732  MEMB      31              0.0000000000
      4043        31  POPC      O12           -24.7402841037       -0.1790745326       19.5510544720  MEMB      31              0.0000000000
      4044        31  POPC      O11           -23.9850176832        1.0848263276       17.5174325063  MEMB      31              0.0000000000
      4045        31  POPC      C1            -22.6794397078        0.9162690762       16.9893342164  MEMB      31              0.0000000000
      4046        31  POPC      HA            -22.1926622255        0.0578853906       17.4997713684  MEMB      31              0.0000000000
      4047        31  POPC      HB            -22.0042717663        1.7881314842       17.1247042405  MEMB      31              0.0000000000
      4048        31  POPC      C2            -22.8275515756        0.6135817885       15.5262788698  MEMB      31              0.0000000000
      4049        31  POPC      HS            -22.4966265865        1.5121287785       14.9628761084  MEMB      31              0.0000000000
      4050        31  POPC      O21           -24.1030166539        0.1400685075       15.0985610996  MEMB      31              0.0000000000
      4051        31  POPC      C21           -24.6355510152        0.8094835968       14.1515210917  MEMB      31              0.0000000000
      4052        31  POPC      O22           -24.2909597908        1.8409705128       13.6179354164  MEMB      31              0.0000000000
      4053        31  POPC      C22           -25.8997440545        0.0670173894       13.6049236268  MEMB      31              0.0000000000
      4054        31  POPC      H2R           -26.7640989537        0.3011092272       14.2625044467  MEMB      31              0.0000000000
      4055        31  POPC      H2S           -25.6905371213       -1.0116734883       13.4406693872  MEMB      31              0.0000000000
      4056        31  POPC      C3            -21.7584477743       -0.4828587571       15.1912700460  MEMB      31              0.0000000000
      4057        31  POPC      HX            -21.9862726028       -1.3502867075       15.8470027411  MEMB      31              0.0000000000
      4058        31  POPC      HY            -20.7700992662       -0.1461799151       15.5709220518  MEMB      31              0.0000000000
      4059        31  POPC      O31           -21.5585383964       -0.8438429531       13.8169856487  MEMB      31              0.0000000000
      4060        31  POPC      C31           -22.4644259219       -1.5554591594       13.2477931591  MEMB      31              0.0000000000
      4061        31  POPC      O32           -23.4315375652       -2.0708739757       13.8403469304  MEMB      31              0.0000000000
      4062        31  POPC      C32           -22.1012381167       -1.7267764997       11.7884682834  MEMB      31              0.0000000000
      4063        31  POPC      H2X           -22.8330520556       -2.4715638264       11.4089143562  MEMB      31              0.0000000000
      4064        31  POPC      H2Y           -21.1132282185       -2.2064104968       11.6208117212  MEMB      31              0.0000000000
      4065        31  POPC      C23           -26.2486486999        0.6900237384       12.3058769588  MEMB      31              0.0000000000
      4066        31  POPC      H3R           -25.4346279282        0.7248841609       11.5505780915  MEMB      31              0.0000000000
      4067        31  POPC      H3S           -26.5629066770        1.7482288041       12.4314347914  MEMB      31              0.0000000000
      4068        31  POPC      C24           -27.5329204042        0.0855911464       11.6627555552  MEMB      31              0.0000000000
      4069        31  POPC      H4R           -28.3825989776        0.0831086836       12.3785498759  MEMB      31              0.0000000000
      4070        31  POPC      H4S           -27.2728414345       -0.9523286317       11.3637526694  MEMB      31              0.0000000000
      4071        31  POPC      C25           -28.2065533341        0.9241044337       10.5224595189  MEMB      31              0.0000000000
      4072        31  POPC      H5R           -27.8609485793        1.9791744676       10.5637612681  MEMB      31              0.0000000000
      4073        31  POPC      H5S           -29.2984993073        0.9270480734       10.7273162469  MEMB      31              0.0000000000
      4074        31  POPC      C26           -28.0609018613        0.3465056168        9.1163027338  MEMB      31              0.0000000000
      4075        31  POPC      H6R           -28.4950211595       -0.6657553791        9.2618672222  MEMB      31              0.0000000000
      4076        31  POPC      H6S           -27.0051442496        0.1322216777        8.8446785259  MEMB      31              0.0000000000
      4077        31  POPC      C27           -28.7906829010        1.1537986513        8.1129399638  MEMB      31              0.0000000000
      4078        31  POPC      H7R           -28.3027426733        2.1516715394        8.1349742031  MEMB      31              0.0000000000
      4079        31  POPC      H7S           -29.7441938210        1.4733869727        8.5851699386  MEMB      31              0.0000000000
      4080        31  POPC      C28           -29.0967291294        0.6955859727        6.6863209029  MEMB      31              0.0000000000
      4081        31  POPC      H8R           -29.9590414509        1.2826792223        6.3041431282  MEMB      31              0.0000000000
      4082        31  POPC      H8S           -29.4998620961       -0.3367590162        6.7642258121  MEMB      31              0.0000000000
      4083        31  POPC      C29           -27.9358962256        0.7691714496        5.7171699950  MEMB      31              0.0000000000
      4084        31  POPC      H91           -27.2209279753        1.5890785942        5.8801802055  MEMB      31              0.0000000000
      4085        31  POPC      C210          -27.6284809977       -0.1707702278        4.7628986089  MEMB      31              0.0000000000
      4086        31  POPC      H101          -26.8591506875        0.1349278947        4.0385508805  MEMB      31              0.0000000000
      4087        31  POPC      C211          -28.3370843223       -1.4473078550        4.3849474422  MEMB      31              0.0000000000
      4088        31  POPC      H11R          -29.2048994334       -1.5982084033        5.0620341229  MEMB      31              0.0000000000
      4089        31  POPC      H11S          -27.6518737979       -2.3209280119        4.3450032331  MEMB      31              0.0000000000
      4090        31  POPC      C212          -28.8743513150       -1.3564674340        2.9371693602  MEMB      31              0.0000000000
      4091        31  POPC      H12R          -29.4337133946       -0.3967213760        2.9192127676  MEMB      31              0.0000000000
      4092        31  POPC      H12S          -29.6165155568       -2.1818124995        2.8890202253  MEMB      31              0.0000000000
      4093        31  POPC      C213          -27.8003494848       -1.3688869102        1.8249389399  MEMB      31              0.0000000000
      4094        31  POPC      H13R          -26.9836803274       -2.0738277691        2.0903266060  MEMB      31              0.0000000000
      4095        31  POPC      H13S          -27.3410361192       -0.3593665138        1.8899078108  MEMB      31              0.0000000000
      4096        31  POPC      C214          -28.3013026664       -1.5819396467        0.4302065004  MEMB      31              0.0000000000
      4097        31  POPC      H14R          -28.8238547007       -2.5533260236        0.2972812556  MEMB      31              0.0000000000
      4098        31  POPC      H14S          -27.4156106982       -1.5701017247       -0.2404137852  MEMB      31              0.0000000000
      4099        31  POPC      C215          -29.3042603115       -0.5587549391       -0.0614634663  MEMB      31              0.0000000000
      4100        31  POPC      H15R          -30.1856512672       -0.6989574818        0.6002121361  MEMB      31              0.0000000000
      4101        31  POPC      H15S          -29.6080389542       -0.6397055128       -1.1270560766  MEMB      31              0.0000000000
      4102        31  POPC      C216          -28.7479790309        0.8695722063        0.0868972777  MEMB      31              0.0000000000
      4103        31  POPC      H16R          -28.5264780427        0.9590396908        1.1719108565  MEMB      31              0.0000000000
      4104        31  POPC      H16S          -29.5645181725        1.6040661772       -0.0807415640  MEMB      31              0.0000000000
      4105        31  POPC      C217          -27.5501143344        1.1781005574       -0.8170588939  MEMB      31              0.0000000000
      4106        31  POPC      H17R          -27.8653242792        0.8699289934       -1.8368594087  MEMB      31              0.0000000000
      4107        31  POPC      H17S          -26.7281756569        0.5286995904       -0.4469006807  MEMB      31              0.0000000000
      4108        31  POPC      C218          -27.2675904093        2.7198077180       -0.8654470792  MEMB      31              0.0000000000
      4109        31  POPC      H18R          -27.1473392056        3.0420760857        0.1909642110  MEMB      31              0.0000000000
      4110        31  POPC      H18S          -28.0574673099        3.2436209282       -1.4451318549  MEMB      31              0.0000000000
      4111        31  POPC      H18T          -26.2826532007        2.8971963568       -1.3478905372  MEMB      31              0.0000000000
      4112        31  POPC      C33           -22.2058744703       -0.5102309266       10.9400447707  MEMB      31              0.0000000000
      4113        31  POPC      H3X           -21.3491155330        0.1408437313       11.2164263536  MEMB      31              0.0000000000
      4114        31  POPC      H3Y           -23.0289143039        0.1626435259       11.2627929102  MEMB      31              0.0000000000
      4115        31  POPC      C34           -22.4637791764       -0.9097077042        9.4763446387  MEMB      31              0.0000000000
      4116        31  POPC      H4X           -23.2608500243       -1.6818418194        9.5293327985  MEMB      31              0.0000000000
      4117        31  POPC      H4Y           -21.5786593465       -1.2989684467        8.9292061267  MEMB      31              0.0000000000
      4118        31  POPC      C35           -23.1158389317        0.3061416071        8.7207987374  MEMB      31              0.0000000000
      4119        31  POPC      H5X           -22.3370062346        1.0719019860        8.5174478652  MEMB      31              0.0000000000
      4120        31  POPC      H5Y           -23.8869945324        0.8563860738        9.3012052433  MEMB      31              0.0000000000
      4121        31  POPC      C36           -23.6462682096       -0.0237595293        7.3135962170  MEMB      31              0.0000000000
      4122        31  POPC      H6X           -24.2738196413        0.8061333283        6.9240091096  MEMB      31              0.0000000000
      4123        31  POPC      H6Y           -24.3190595566       -0.8951968503        7.4628265363  MEMB      31              0.0000000000
      4124        31  POPC      C37           -22.5959711362       -0.4584456106        6.3217604717  MEMB      31              0.0000000000
      4125        31  POPC      H7X           -22.1481611767       -1.3852195098        6.7399440185  MEMB      31              0.0000000000
      4126        31  POPC      H7Y           -21.7396068881        0.2493383445        6.3234896631  MEMB      31              0.0000000000
      4127        31  POPC      C38           -23.0787238761       -0.7099661055        4.8126540677  MEMB      31              0.0000000000
      4128        31  POPC      H8X           -22.1762898296       -0.6695878650        4.1658905822  MEMB      31              0.0000000000
      4129        31  POPC      H8Y           -23.7592460312        0.1504452019        4.6368614148  MEMB      31              0.0000000000
      4130        31  POPC      C39           -23.8329441997       -1.9278545873        4.5015836267  MEMB      31              0.0000000000
      4131        31  POPC      H9X           -24.6276254935       -2.1164035458        5.2547448453  MEMB      31              0.0000000000
      4132        31  POPC      H9Y           -23.1421093063       -2.7715761977        4.7141913059  MEMB      31              0.0000000000
      4133        31  POPC      C310          -24.4189450592       -2.0315181895        3.0927599675  MEMB      31              0.0000000000
      4134        31  POPC      H10X          -25.2004803726       -1.2454734917        3.0175447785  MEMB      31              0.0000000000
      4135        31  POPC      H10Y          -25.0054715324       -2.9522620514        2.8865120595  MEMB      31              0.0000000000
      4136        31  POPC      C311          -23.5337735316       -1.6777015235        1.9264236765  MEMB      31              0.0000000000
      4137        31  POPC      H11X          -23.1690403380       -0.6299245097        1.9851940358  MEMB      31              0.0000000000
      4138        31  POPC      H11Y          -24.1813203225       -1.7596965799        1.0273789776  MEMB      31              0.0000000000
      4139        31  POPC      C312          -22.2407455291       -2.5178165610        1.8575933702  MEMB      31              0.0000000000
      4140        31  POPC      H12X          -22.4531754324       -3.5747178211        2.1262090642  MEMB      31              0.0000000000
      4141        31  POPC      H12Y          -21.5418775953       -2.0294005845        2.5698817213  MEMB      31              0.0000000000
      4142        31  POPC      C313          -21.5004918086       -2.5034100026        0.4707562379  MEMB      31              0.0000000000
      4143        31  POPC      H13X          -22.2693113572       -2.4219579412       -0.3271177579  MEMB      31              0.0000000000
      4144        31  POPC      H13Y          -20.9714549722       -3.4801437497        0.4499681038  MEMB      31              0.0000000000
      4145        31  POPC      C314          -20.5376253444       -1.3807369724        0.2574167369  MEMB      31              0.0000000000
      4146        31  POPC      H14X          -19.9214357387       -1.6287093277       -0.6331679579  MEMB      31              0.0000000000
      4147        31  POPC      H14Y          -19.7910931216       -1.3602352469        1.0799675462  MEMB      31              0.0000000000
      4148        31  POPC      C315          -20.9900528995        0.0390103382        0.0905559990  MEMB      31              0.0000000000
      4149        31  POPC      H15X          -20.1282597951        0.6946837018       -0.1578914715  MEMB      31              0.0000000000
      4150        31  POPC      H15Y          -21.3933707935        0.3080538325        1.0901918030  MEMB      31              0.0000000000
      4151        31  POPC      C316          -22.1431197763        0.2454057054       -0.9688817609  MEMB      31              0.0000000000
      4152        31  POPC      H16X          -21.6575835545        0.0578117260       -1.9504042933  MEMB      31              0.0000000000
      4153        31  POPC      H16Y          -22.5177194868        1.2888578527       -1.0410185491  MEMB      31              0.0000000000
      4154        31  POPC      H16Z          -23.0064888664       -0.3805328251       -0.6572495322  MEMB      31              0.0000000000
      4155        32  POPC      N              23.0598421009       23.4519974449       19.4055217260  MEMB      32              0.0000000000
      4156        32  POPC      C12            22.3149451675       22.5195337391       20.3594988323  MEMB      32              0.0000000000
      4157        32  POPC      H12A           21.4391397394       22.9416953444       20.8297587817  MEMB      32              0.0000000000
      4158        32  POPC      H12B           23.0794522091       22.2737811872       21.0816725279  MEMB      32              0.0000000000
      4159        32  POPC      C13            24.3582302233       22.8322196827       18.9005916390  MEMB      32              0.0000000000
      4160        32  POPC      H13A           25.1185727772       22.7882706675       19.6663251606  MEMB      32              0.0000000000
      4161        32  POPC      H13B           24.2394709007       21.9218456832       18.3318075986  MEMB      32              0.0000000000
      4162        32  POPC      H13C           24.8016641299       23.4912419237       18.1688428822  MEMB      32              0.0000000000
      4163        32  POPC      C14            22.1544384531       23.7205205651       18.2103488820  MEMB      32              0.0000000000
      4164        32  POPC      H14A           21.4206539894       22.9517406423       18.0181570948  MEMB      32              0.0000000000
      4165        32  POPC      H14B           21.5989407978       24.6235430021       18.4161952324  MEMB      32              0.0000000000
      4166        32  POPC      H14C           22.6786666372       23.8811833154       17.2798799746  MEMB      32              0.0000000000
      4167        32  POPC      C15            23.3758023355       24.8076862265       19.8728987583  MEMB      32              0.0000000000
      4168        32  POPC      H15A           23.8236404606       25.1959913537       18.9700920707  MEMB      32              0.0000000000
      4169        32  POPC      H15B           24.0659775657       24.8098793674       20.7035933398  MEMB      32              0.0000000000
      4170        32  POPC      H15C           22.5010945366       25.3396573533       20.2168363869  MEMB      32              0.0000000000
      4171        32  POPC      C11            21.6121688765       21.2229932820       19.8131498752  MEMB      32              0.0000000000
      4172        32  POPC      H11A           20.7268099086       21.5656661304       19.2360573002  MEMB      32              0.0000000000
      4173        32  POPC      H11B           21.2513924279       20.6684018665       20.7056685510  MEMB      32              0.0000000000
      4174        32  POPC      P              21.9442410517       18.8546078340       18.5374591056  MEMB      32              0.0000000000
      4175        32  POPC      O13            20.5794496462       18.7164059521       18.9533499019  MEMB      32              0.0000000000
      4176        32  POPC      O14            23.0510672715       17.9098428708       19.0766576185  MEMB      32              0.0000000000
      4177        32  POPC      O12            22.4169462570       20.4045406674       18.9146260108  MEMB      32              0.0000000000
      4178        32  POPC      O11            22.0060600517       18.7476133068       16.9558976537  MEMB      32              0.0000000000
      4179        32  POPC      C1             22.0991376660       19.8728884177       16.1864091288  MEMB      32              0.0000000000
      4180        32  POPC      HA             22.5536805663       19.5126374882       15.2388170981  MEMB      32              0.0000000000
      4181        32  POPC      HB             22.8264221754       20.5977209947       16.6106684550  MEMB      32              0.0000000000
      4182        32  POPC      C2             20.7166167200       20.4414760004       15.8938449502  MEMB      32              0.0000000000
      4183        32  POPC      HS             20.2130851176       20.4793746443       16.8834612940  MEMB      32              0.0000000000
      4184        32  POPC      O21            20.0202537223       19.4221580267       15.0845234100  MEMB      32              0.0000000000
      4185        32  POPC      C21            18.7630645127       19.4073901507       15.0578959663  MEMB      32              0.0000000000
      4186        32  POPC      O22            17.9682078681       20.1229149106       15.7044981805  MEMB      32              0.0000000000
      4187        32  POPC      C22            18.3271311075       18.2735144791       14.0353818589  MEMB      32              0.0000000000
      4188        32  POPC      H2R            17.5477672422       18.6318959540       13.3293538648  MEMB      32              0.0000000000
      4189        32  POPC      H2S            17.7887313986       17.4871500464       14.6064143432  MEMB      32              0.0000000000
      4190        32  POPC      C3             20.8504674124       21.7004634018       15.1382297501  MEMB      32              0.0000000000
      4191        32  POPC      HX             21.5402246266       22.3300047897       15.7400882793  MEMB      32              0.0000000000
      4192        32  POPC      HY             19.8555437503       22.1285058478       14.8907873334  MEMB      32              0.0000000000
      4193        32  POPC      O31            21.4987902869       21.4258671255       13.9084510208  MEMB      32              0.0000000000
      4194        32  POPC      C31            21.3686356817       22.4006404167       13.0437184909  MEMB      32              0.0000000000
      4195        32  POPC      O32            20.9072338362       23.5222989609       13.2827963937  MEMB      32              0.0000000000
      4196        32  POPC      C32            21.6753507532       21.9430952198       11.5896403747  MEMB      32              0.0000000000
      4197        32  POPC      H2X            20.9572263254       21.1622510926       11.2596390256  MEMB      32              0.0000000000
      4198        32  POPC      H2Y            22.6561514358       21.4218164718       11.6145278156  MEMB      32              0.0000000000
      4199        32  POPC      C23            19.5394963038       17.6119370952       13.3759788739  MEMB      32              0.0000000000
      4200        32  POPC      H3R            19.2869926469       16.5866803120       13.0304196333  MEMB      32              0.0000000000
      4201        32  POPC      H3S            20.4004088972       17.4217584825       14.0519838596  MEMB      32              0.0000000000
      4202        32  POPC      C24            19.9772167052       18.4334972911       12.1068006446  MEMB      32              0.0000000000
      4203        32  POPC      H4R            20.2958013025       19.4346638659       12.4680351988  MEMB      32              0.0000000000
      4204        32  POPC      H4S            19.0747717020       18.5605805666       11.4713762709  MEMB      32              0.0000000000
      4205        32  POPC      C25            20.9168261568       17.6575712694       11.2569429558  MEMB      32              0.0000000000
      4206        32  POPC      H5R            20.9576430571       16.6560772227       11.7361760916  MEMB      32              0.0000000000
      4207        32  POPC      H5S            21.9539543008       18.0438298339       11.3543607688  MEMB      32              0.0000000000
      4208        32  POPC      C26            20.6485379084       17.4617851812        9.7658070627  MEMB      32              0.0000000000
      4209        32  POPC      H6R            19.6502227771       17.0091261312        9.5847331343  MEMB      32              0.0000000000
      4210        32  POPC      H6S            21.2999356297       16.6380374522        9.4032583309  MEMB      32              0.0000000000
      4211        32  POPC      C27            20.8395569083       18.7220165276        8.8935608308  MEMB      32              0.0000000000
      4212        32  POPC      H7R            21.9063622634       18.9123952881        8.6486049682  MEMB      32              0.0000000000
      4213        32  POPC      H7S            20.4872979660       19.6210650676        9.4430581413  MEMB      32              0.0000000000
      4214        32  POPC      C28            19.9532098922       18.5464053251        7.5020326626  MEMB      32              0.0000000000
      4215        32  POPC      H8R            18.9327588857       18.8355590494        7.8327746859  MEMB      32              0.0000000000
      4216        32  POPC      H8S            19.8592087924       17.4625233589        7.2768998861  MEMB      32              0.0000000000
      4217        32  POPC      C29            20.4156636138       19.3672002323        6.3410214683  MEMB      32              0.0000000000
      4218        32  POPC      H91            20.0859002606       20.4039164669        6.5037350257  MEMB      32              0.0000000000
      4219        32  POPC      C210           21.0523664773       18.9436301511        5.1524380265  MEMB      32              0.0000000000
      4220        32  POPC      H101           21.3814489298       19.6937444025        4.4182489762  MEMB      32              0.0000000000
      4221        32  POPC      C211           21.4349188401       17.4865361946        4.7624129449  MEMB      32              0.0000000000
      4222        32  POPC      H11R           21.6810164084       16.8380666804        5.6303089436  MEMB      32              0.0000000000
      4223        32  POPC      H11S           22.3330502641       17.4503664161        4.1094405090  MEMB      32              0.0000000000
      4224        32  POPC      C212           20.2655704641       16.7116842657        4.0906239627  MEMB      32              0.0000000000
      4225        32  POPC      H12R           19.3527618743       16.6666900479        4.7223492934  MEMB      32              0.0000000000
      4226        32  POPC      H12S           20.6103890782       15.6688371177        3.9236179195  MEMB      32              0.0000000000
      4227        32  POPC      C213           19.9683386126       17.2900178921        2.6622880329  MEMB      32              0.0000000000
      4228        32  POPC      H13R           19.7563202528       18.3695850388        2.8168968157  MEMB      32              0.0000000000
      4229        32  POPC      H13S           19.0429933429       16.8305054068        2.2537481952  MEMB      32              0.0000000000
      4230        32  POPC      C214           21.0497375659       17.0900966844        1.6083570563  MEMB      32              0.0000000000
      4231        32  POPC      H14R           21.5272733894       16.1026828414        1.7852605251  MEMB      32              0.0000000000
      4232        32  POPC      H14S           21.9017530338       17.7787574030        1.7931189158  MEMB      32              0.0000000000
      4233        32  POPC      C215           20.6586542762       17.2840743762        0.1680699242  MEMB      32              0.0000000000
      4234        32  POPC      H15R           19.8269314189       16.5727514818       -0.0231836380  MEMB      32              0.0000000000
      4235        32  POPC      H15S           21.4482362625       16.9133018215       -0.5199763426  MEMB      32              0.0000000000
      4236        32  POPC      C216           20.1561391154       18.6487278120       -0.1101966286  MEMB      32              0.0000000000
      4237        32  POPC      H16R           20.9571344140       19.4066536883        0.0249921505  MEMB      32              0.0000000000
      4238        32  POPC      H16S           19.3150873719       18.9014690121        0.5702989066  MEMB      32              0.0000000000
      4239        32  POPC      C217           19.7378051422       18.8611517000       -1.5676419496  MEMB      32              0.0000000000
      4240        32  POPC      H17R           20.6761943451       18.6091916908       -2.1064032030  MEMB      32              0.0000000000
      4241        32  POPC      H17S           19.4827733487       19.9295076543       -1.7346613117  MEMB      32              0.0000000000
      4242        32  POPC      C218           18.5424330511       18.0964672302       -1.9608199379  MEMB      32              0.0000000000
      4243        32  POPC      H18R           18.5446047171       17.0581966693       -1.5654587885  MEMB      32              0.0000000000
      4244        32  POPC      H18S           18.4418792149       18.0404589486       -3.0658433310  MEMB      32              0.0000000000
      4245        32  POPC      H18T           17.7085833162       18.6209425555       -1.4470683827  MEMB      32              0.0000000000
      4246        32  POPC      C33            21.7664060332       23.0881193960       10.6060849962  MEMB      32              0.0000000000
      4247        32  POPC      H3X            22.3667358797       22.7289860906        9.7429812170  MEMB      32              0.0000000000
      4248        32  POPC      H3Y            22.2173863469       24.0072826637       11.0374510153  MEMB      32              0.0000000000
      4249        32  POPC      C34            20.3409297064       23.5966778215       10.1301199974  MEMB      32              0.0000000000
      4250        32  POPC      H4X            19.6724228310       23.8021728064       10.9933645457  MEMB      32              0.0000000000
      4251        32  POPC      H4Y            19.8917281145       22.8286392941        9.4647969880  MEMB      32              0.0000000000
      4252        32  POPC      C35            20.3220619307       25.0154322487        9.4639635122  MEMB      32              0.0000000000
      4253        32  POPC      H5X            20.7477143938       25.7323816729       10.1982147218  MEMB      32              0.0000000000
      4254        32  POPC      H5Y            19.2922674872       25.2919110900        9.1518680791  MEMB      32              0.0000000000
      4255        32  POPC      C36            21.2295279449       25.0695165254        8.2081651697  MEMB      32              0.0000000000
      4256        32  POPC      H6X            22.3364536376       25.0140822857        8.2853893423  MEMB      32              0.0000000000
      4257        32  POPC      H6Y            21.0988422414       26.0889940275        7.7863746568  MEMB      32              0.0000000000
      4258        32  POPC      C37            20.8212645564       24.0670782820        7.1295236141  MEMB      32              0.0000000000
      4259        32  POPC      H7X            19.7644913725       24.2346255880        6.8303937712  MEMB      32              0.0000000000
      4260        32  POPC      H7Y            20.8345429081       23.1095472516        7.6927992972  MEMB      32              0.0000000000
      4261        32  POPC      C38            21.8136042322       23.9343965044        5.9302127060  MEMB      32              0.0000000000
      4262        32  POPC      H8X            22.7750716376       23.3841949201        6.0149466210  MEMB      32              0.0000000000
      4263        32  POPC      H8Y            22.0163530199       25.0159626401        5.7771486966  MEMB      32              0.0000000000
      4264        32  POPC      C39            21.1590838192       23.4646108687        4.6343876740  MEMB      32              0.0000000000
      4265        32  POPC      H9X            20.4506003594       24.2328620240        4.2573433252  MEMB      32              0.0000000000
      4266        32  POPC      H9Y            20.5109078678       22.5970644630        4.8824842145  MEMB      32              0.0000000000
      4267        32  POPC      C310           22.1183985697       23.0156150020        3.4887098270  MEMB      32              0.0000000000
      4268        32  POPC      H10X           22.6609906903       23.8896335230        3.0691783454  MEMB      32              0.0000000000
      4269        32  POPC      H10Y           21.5669084794       22.5375279355        2.6510881137  MEMB      32              0.0000000000
      4270        32  POPC      C311           23.2273742307       21.9770843668        3.9183073891  MEMB      32              0.0000000000
      4271        32  POPC      H11X           22.7296313023       21.0534861419        4.2837381654  MEMB      32              0.0000000000
      4272        32  POPC      H11Y           23.7937947878       22.4051256715        4.7728655563  MEMB      32              0.0000000000
      4273        32  POPC      C312           24.1692808418       21.7108286056        2.7729759212  MEMB      32              0.0000000000
      4274        32  POPC      H12X           24.9891048870       21.0900570851        3.1935141622  MEMB      32              0.0000000000
      4275        32  POPC      H12Y           24.7613634923       22.6421846139        2.6451678803  MEMB      32              0.0000000000
      4276        32  POPC      C313           23.5455576785       21.0859861861        1.5047322759  MEMB      32              0.0000000000
      4277        32  POPC      H13X           22.4785616343       20.8398511075        1.6925035203  MEMB      32              0.0000000000
      4278        32  POPC      H13Y           24.2034046515       20.2401213463        1.2113528218  MEMB      32              0.0000000000
      4279        32  POPC      C314           23.5851226264       21.9846203314        0.2898537541  MEMB      32              0.0000000000
      4280        32  POPC      H14X           24.6180928734       22.1668918500       -0.0763028354  MEMB      32              0.0000000000
      4281        32  POPC      H14Y           23.2361292453       23.0108350848        0.5335909726  MEMB      32              0.0000000000
      4282        32  POPC      C315           22.7697498703       21.5459956744       -0.8666408469  MEMB      32              0.0000000000
      4283        32  POPC      H15X           21.6999195833       21.5698325305       -0.5679517391  MEMB      32              0.0000000000
      4284        32  POPC      H15Y           23.0351277926       20.5227366515       -1.2084548973  MEMB      32              0.0000000000
      4285        32  POPC      C316           22.8399724785       22.4387108533       -2.1644476984  MEMB      32              0.0000000000
      4286        32  POPC      H16X           22.2858409155       22.1038527382       -3.0672920488  MEMB      32              0.0000000000
      4287        32  POPC      H16Y           23.9217389590       22.4747697185       -2.4150514155  MEMB      32              0.0000000000
      4288        32  POPC      H16Z           22.4305872061       23.4285425226       -1.8695605196  MEMB      32              0.0000000000
      4289        33  POPC      N             -26.4500694511      -18.6804350995       20.5656766282  MEMB      33              0.0000000000
      4290        33  POPC      C12           -26.8312490229      -18.8044820457       19.1248702045  MEMB      33              0.0000000000
      4291        33  POPC      H12A          -27.7861255624      -19.3039275180       19.0530018918  MEMB      33              0.0000000000
      4292        33  POPC      H12B          -26.1045373834      -19.4179739020       18.6130909650  MEMB      33              0.0000000000
      4293        33  POPC      C13           -24.9896695942      -18.4447495187       20.8846469217  MEMB      33              0.0000000000
      4294        33  POPC      H13A          -24.5444915582      -17.7711531686       20.1673710949  MEMB      33              0.0000000000
      4295        33  POPC      H13B          -24.8716700817      -18.1662082036       21.9214161118  MEMB      33              0.0000000000
      4296        33  POPC      H13C          -24.4758976581      -19.3772773206       20.7034548014  MEMB      33              0.0000000000
      4297        33  POPC      C14           -27.2221970696      -17.6093512879       21.2312329794  MEMB      33              0.0000000000
      4298        33  POPC      H14A          -26.9773181024      -17.5940795143       22.2829937530  MEMB      33              0.0000000000
      4299        33  POPC      H14B          -27.0912274510      -16.6262654665       20.8036942684  MEMB      33              0.0000000000
      4300        33  POPC      H14C          -28.2968004409      -17.7162943378       21.2174181007  MEMB      33              0.0000000000
      4301        33  POPC      C15           -26.8530223528      -19.9726534758       21.1846752974  MEMB      33              0.0000000000
      4302        33  POPC      H15A          -26.1465160675      -20.1254672541       21.9871070805  MEMB      33              0.0000000000
      4303        33  POPC      H15B          -26.5389896622      -20.7457352397       20.4990165571  MEMB      33              0.0000000000
      4304        33  POPC      H15C          -27.8882596310      -20.0236639156       21.4881248807  MEMB      33              0.0000000000
      4305        33  POPC      C11           -27.0551492157      -17.4444320876       18.2763076389  MEMB      33              0.0000000000
      4306        33  POPC      H11A          -28.1008110548      -17.1160123211       18.4581118897  MEMB      33              0.0000000000
      4307        33  POPC      H11B          -26.8405895265      -17.8722956737       17.2737020782  MEMB      33              0.0000000000
      4308        33  POPC      P             -25.4044626365      -15.5945182019       17.5175789311  MEMB      33              0.0000000000
      4309        33  POPC      O13           -24.5413798578      -16.5124329358       16.7952513859  MEMB      33              0.0000000000
      4310        33  POPC      O14           -24.7575117100      -14.4141412560       18.0713228670  MEMB      33              0.0000000000
      4311        33  POPC      O12           -26.1087505610      -16.4403661035       18.7368509818  MEMB      33              0.0000000000
      4312        33  POPC      O11           -26.7019112141      -15.2124692009       16.6115861902  MEMB      33              0.0000000000
      4313        33  POPC      C1            -27.6357713803      -14.1920304461       17.0168955156  MEMB      33              0.0000000000
      4314        33  POPC      HA            -27.0741895472      -13.3940683027       17.5481236580  MEMB      33              0.0000000000
      4315        33  POPC      HB            -28.4361756613      -14.5872462539       17.6783170762  MEMB      33              0.0000000000
      4316        33  POPC      C2            -28.1539452657      -13.6009581518       15.6427615948  MEMB      33              0.0000000000
      4317        33  POPC      HS            -28.8066247605      -12.7640178035       15.9711841679  MEMB      33              0.0000000000
      4318        33  POPC      O21           -28.8438855941      -14.5496146315       14.8773981230  MEMB      33              0.0000000000
      4319        33  POPC      C21           -29.9852996688      -15.1218833761       15.3286695805  MEMB      33              0.0000000000
      4320        33  POPC      O22           -30.5682091911      -14.8338071021       16.3455499923  MEMB      33              0.0000000000
      4321        33  POPC      C22           -30.5449427669      -15.9021959564       14.1639701421  MEMB      33              0.0000000000
      4322        33  POPC      H2R           -31.3099258205      -15.3539313007       13.5736077832  MEMB      33              0.0000000000
      4323        33  POPC      H2S           -31.1994163493      -16.6639111426       14.6391283604  MEMB      33              0.0000000000
      4324        33  POPC      C3            -27.0296631827      -13.0945199089       14.7136661110  MEMB      33              0.0000000000
      4325        33  POPC      HX            -26.5024139718      -12.3036443852       15.2888579401  MEMB      33              0.0000000000
      4326        33  POPC      HY            -27.4859518252      -12.6675067384       13.7950905066  MEMB      33              0.0000000000
      4327        33  POPC      O31           -26.1922305942      -14.1295024315       14.2637360315  MEMB      33              0.0000000000
      4328        33  POPC      C31           -24.9622681732      -13.6672815067       13.9293816835  MEMB      33              0.0000000000
      4329        33  POPC      O32           -24.5392987542      -12.5406068672       13.9973920932  MEMB      33              0.0000000000
      4330        33  POPC      C32           -24.1208516985      -14.8907626393       13.4930599543  MEMB      33              0.0000000000
      4331        33  POPC      H2X           -24.2483670966      -15.6345833678       14.3084075677  MEMB      33              0.0000000000
      4332        33  POPC      H2Y           -23.0845149490      -14.5289359007       13.3215694520  MEMB      33              0.0000000000
      4333        33  POPC      C23           -29.4350232426      -16.4450332352       13.2689839749  MEMB      33              0.0000000000
      4334        33  POPC      H3R           -28.7769486058      -16.9884417222       13.9802970994  MEMB      33              0.0000000000
      4335        33  POPC      H3S           -28.8743555798      -15.5865760364       12.8411708595  MEMB      33              0.0000000000
      4336        33  POPC      C24           -29.9265590849      -17.3707301305       12.1484765258  MEMB      33              0.0000000000
      4337        33  POPC      H4R           -30.7190233804      -16.7637895017       11.6606810867  MEMB      33              0.0000000000
      4338        33  POPC      H4S           -30.3972055258      -18.3047870789       12.5231097847  MEMB      33              0.0000000000
      4339        33  POPC      C25           -28.8066498138      -17.8009524413       11.2237105132  MEMB      33              0.0000000000
      4340        33  POPC      H5R           -28.0388388918      -18.3445383839       11.8147278859  MEMB      33              0.0000000000
      4341        33  POPC      H5S           -28.2281150372      -16.8924273965       10.9513126459  MEMB      33              0.0000000000
      4342        33  POPC      C26           -29.3131900871      -18.5704346873       10.0130971223  MEMB      33              0.0000000000
      4343        33  POPC      H6R           -30.0332287401      -17.9773903043        9.4096371796  MEMB      33              0.0000000000
      4344        33  POPC      H6S           -29.7987051852      -19.5131309808       10.3446385446  MEMB      33              0.0000000000
      4345        33  POPC      C27           -28.1922918872      -19.0915872931        9.0570645113  MEMB      33              0.0000000000
      4346        33  POPC      H7R           -28.5865936043      -20.0079318834        8.5680251072  MEMB      33              0.0000000000
      4347        33  POPC      H7S           -27.3168965831      -19.2863715796        9.7128566134  MEMB      33              0.0000000000
      4348        33  POPC      C28           -27.8465136683      -18.1387606617        7.9397412912  MEMB      33              0.0000000000
      4349        33  POPC      H8R           -28.8255126595      -17.8002437106        7.5381337623  MEMB      33              0.0000000000
      4350        33  POPC      H8S           -27.3711278385      -18.7882218038        7.1738890328  MEMB      33              0.0000000000
      4351        33  POPC      C29           -26.9348974160      -16.9780849304        8.4367804845  MEMB      33              0.0000000000
      4352        33  POPC      H91           -26.0000004094      -17.3657570037        8.8676838707  MEMB      33              0.0000000000
      4353        33  POPC      C210          -27.2369483697      -15.6866751067        8.4641568302  MEMB      33              0.0000000000
      4354        33  POPC      H101          -26.5173301648      -14.9941277162        8.9251648498  MEMB      33              0.0000000000
      4355        33  POPC      C211          -28.5315634754      -15.0754046534        8.0328770924  MEMB      33              0.0000000000
      4356        33  POPC      H11R          -28.7948684860      -14.3001345688        8.7838418000  MEMB      33              0.0000000000
      4357        33  POPC      H11S          -29.2820569198      -15.8664698859        8.2457066274  MEMB      33              0.0000000000
      4358        33  POPC      C212          -28.6752070637      -14.4682410940        6.6690894541  MEMB      33              0.0000000000
      4359        33  POPC      H12R          -27.6801531200      -14.1801246218        6.2676203697  MEMB      33              0.0000000000
      4360        33  POPC      H12S          -29.2225208795      -13.5048752674        6.5872682131  MEMB      33              0.0000000000
      4361        33  POPC      C213          -29.3155954595      -15.4687319317        5.6253831584  MEMB      33              0.0000000000
      4362        33  POPC      H13R          -28.5331609650      -16.2450617181        5.4859940119  MEMB      33              0.0000000000
      4363        33  POPC      H13S          -29.4614309922      -14.9035415463        4.6800716534  MEMB      33              0.0000000000
      4364        33  POPC      C214          -30.6577065822      -16.0971435796        6.1256232268  MEMB      33              0.0000000000
      4365        33  POPC      H14R          -31.2305529882      -15.2398374580        6.5393792924  MEMB      33              0.0000000000
      4366        33  POPC      H14S          -30.5442796844      -16.9254164381        6.8573472855  MEMB      33              0.0000000000
      4367        33  POPC      C215          -31.5006955816      -16.4785132196        4.9502827466  MEMB      33              0.0000000000
      4368        33  POPC      H15R          -31.6464589999      -15.5486776183        4.3599607058  MEMB      33              0.0000000000
      4369        33  POPC      H15S          -32.4915796212      -16.9005905976        5.2229005813  MEMB      33              0.0000000000
      4370        33  POPC      C216          -30.7581275099      -17.5274114755        4.0176928451  MEMB      33              0.0000000000
      4371        33  POPC      H16R          -30.1859015158      -18.2691308055        4.6149627319  MEMB      33              0.0000000000
      4372        33  POPC      H16S          -29.9814446725      -16.9252060409        3.4995877010  MEMB      33              0.0000000000
      4373        33  POPC      C217          -31.8889300980      -17.9441311272        3.0432502634  MEMB      33              0.0000000000
      4374        33  POPC      H17R          -32.1288735144      -16.9932941672        2.5210852412  MEMB      33              0.0000000000
      4375        33  POPC      H17S          -32.7906502335      -18.3005013430        3.5856730830  MEMB      33              0.0000000000
      4376        33  POPC      C218          -31.3773035847      -19.0226416068        2.0635511742  MEMB      33              0.0000000000
      4377        33  POPC      H18R          -32.0194277207      -19.1828054482        1.1711680482  MEMB      33              0.0000000000
      4378        33  POPC      H18S          -31.2487563988      -19.9691547230        2.6309207750  MEMB      33              0.0000000000
      4379        33  POPC      H18T          -30.3628774847      -18.7300867063        1.7176148424  MEMB      33              0.0000000000
      4380        33  POPC      C33           -24.6330619326      -15.4752903895       12.1859574295  MEMB      33              0.0000000000
      4381        33  POPC      H3X           -24.4642182865      -14.8364215594       11.2928394537  MEMB      33              0.0000000000
      4382        33  POPC      H3Y           -25.7318439491      -15.6345425292       12.2264262419  MEMB      33              0.0000000000
      4383        33  POPC      C34           -23.8666025667      -16.7422723452       12.0111794451  MEMB      33              0.0000000000
      4384        33  POPC      H4X           -24.0339158936      -17.4563566036       12.8456917222  MEMB      33              0.0000000000
      4385        33  POPC      H4Y           -22.8127495290      -16.3947573085       11.9568831336  MEMB      33              0.0000000000
      4386        33  POPC      C35           -24.1151865455      -17.4697620801       10.7085724028  MEMB      33              0.0000000000
      4387        33  POPC      H5X           -24.1776826349      -16.6474588236        9.9641040388  MEMB      33              0.0000000000
      4388        33  POPC      H5Y           -25.0884857169      -18.0054648912       10.7142406751  MEMB      33              0.0000000000
      4389        33  POPC      C36           -22.8328070530      -18.3902541612       10.3955860110  MEMB      33              0.0000000000
      4390        33  POPC      H6X           -22.3292833437      -18.7292921557       11.3260901903  MEMB      33              0.0000000000
      4391        33  POPC      H6Y           -22.0328471673      -17.8618159646        9.8342136717  MEMB      33              0.0000000000
      4392        33  POPC      C37           -23.1271775321      -19.5493113440        9.3904216269  MEMB      33              0.0000000000
      4393        33  POPC      H7X           -23.8487241275      -20.2121906503        9.9141416171  MEMB      33              0.0000000000
      4394        33  POPC      H7Y           -22.2034542203      -20.1378116199        9.2040771990  MEMB      33              0.0000000000
      4395        33  POPC      C38           -23.7121952285      -19.1708382869        8.0513441528  MEMB      33              0.0000000000
      4396        33  POPC      H8X           -24.5038732724      -18.4120765345        8.2298033077  MEMB      33              0.0000000000
      4397        33  POPC      H8Y           -24.1266900003      -19.9383543052        7.3632784578  MEMB      33              0.0000000000
      4398        33  POPC      C39           -22.6115720658      -18.5316084400        7.2544293937  MEMB      33              0.0000000000
      4399        33  POPC      H9X           -22.0047673804      -19.3989318581        6.9169993914  MEMB      33              0.0000000000
      4400        33  POPC      H9Y           -21.9607212735      -17.8425363241        7.8339925692  MEMB      33              0.0000000000
      4401        33  POPC      C310          -23.0103783674      -17.8359656734        5.9643446319  MEMB      33              0.0000000000
      4402        33  POPC      H10X          -23.4531393599      -18.6122442230        5.3042877001  MEMB      33              0.0000000000
      4403        33  POPC      H10Y          -22.0705637058      -17.5078891735        5.4709532826  MEMB      33              0.0000000000
      4404        33  POPC      C311          -23.8843493238      -16.5009523526        6.1149398952  MEMB      33              0.0000000000
      4405        33  POPC      H11X          -23.3422537714      -15.9664022125        6.9240807112  MEMB      33              0.0000000000
      4406        33  POPC      H11Y          -24.9587872449      -16.7418629360        6.2628127830  MEMB      33              0.0000000000
      4407        33  POPC      C312          -23.9397138156      -15.5731859104        4.8368076745  MEMB      33              0.0000000000
      4408        33  POPC      H12X          -24.2329091433      -16.2695381316        4.0222827778  MEMB      33              0.0000000000
      4409        33  POPC      H12Y          -22.9398866163      -15.1423373791        4.6153657737  MEMB      33              0.0000000000
      4410        33  POPC      C313          -25.0799577665      -14.5803822621        4.8498446476  MEMB      33              0.0000000000
      4411        33  POPC      H13X          -24.7524762508      -13.8159711903        5.5865611867  MEMB      33              0.0000000000
      4412        33  POPC      H13Y          -25.9466715324      -15.1624579886        5.2297340566  MEMB      33              0.0000000000
      4413        33  POPC      C314          -25.4803133428      -13.9879190667        3.4897042596  MEMB      33              0.0000000000
      4414        33  POPC      H14X          -25.8214418767      -14.8185569305        2.8354925284  MEMB      33              0.0000000000
      4415        33  POPC      H14Y          -24.6353983927      -13.5853312162        2.8910697517  MEMB      33              0.0000000000
      4416        33  POPC      C315          -26.8098302955      -13.0960937514        3.4628656112  MEMB      33              0.0000000000
      4417        33  POPC      H15X          -26.6709206184      -12.2490901070        4.1682803228  MEMB      33              0.0000000000
      4418        33  POPC      H15Y          -27.6621008315      -13.7566009997        3.7306075601  MEMB      33              0.0000000000
      4419        33  POPC      C316          -27.1038500445      -12.3606642886        2.1490176216  MEMB      33              0.0000000000
      4420        33  POPC      H16X          -27.1563943053      -13.0511441918        1.2802262637  MEMB      33              0.0000000000
      4421        33  POPC      H16Y          -26.3957270149      -11.5258043622        1.9595658790  MEMB      33              0.0000000000
      4422        33  POPC      H16Z          -28.0972067672      -11.8634447197        2.1306811125  MEMB      33              0.0000000000
      4423        34  POPC      N             -19.5077177194      -23.4905373642       20.3092925721  MEMB      34              0.0000000000
      4424        34  POPC      C12           -20.7351955078      -22.9234884093       19.6479998622  MEMB      34              0.0000000000
      4425        34  POPC      H12A          -20.8425438871      -21.9144714486       20.0178121878  MEMB      34              0.0000000000
      4426        34  POPC      H12B          -21.5969782161      -23.4269006788       20.0606819445  MEMB      34              0.0000000000
      4427        34  POPC      C13           -19.6899926352      -23.5850120472       21.8082945148  MEMB      34              0.0000000000
      4428        34  POPC      H13A          -18.9095932131      -24.1457814465       22.3011580136  MEMB      34              0.0000000000
      4429        34  POPC      H13B          -19.7464063499      -22.6458525486       22.3385745649  MEMB      34              0.0000000000
      4430        34  POPC      H13C          -20.5549122665      -24.2240957061       21.9077232658  MEMB      34              0.0000000000
      4431        34  POPC      C14           -19.2176167464      -24.8803809169       19.7887690415  MEMB      34              0.0000000000
      4432        34  POPC      H14A          -20.1603544406      -25.3982575126       19.8859778002  MEMB      34              0.0000000000
      4433        34  POPC      H14B          -18.7103848635      -24.8961197886       18.8354233636  MEMB      34              0.0000000000
      4434        34  POPC      H14C          -18.5475883253      -25.3415038469       20.4992812359  MEMB      34              0.0000000000
      4435        34  POPC      C15           -18.2697805432      -22.6494193145       19.9624351705  MEMB      34              0.0000000000
      4436        34  POPC      H15A          -18.3549141541      -21.5792291435       20.0801011282  MEMB      34              0.0000000000
      4437        34  POPC      H15B          -17.9497634880      -22.8854114329       18.9582953697  MEMB      34              0.0000000000
      4438        34  POPC      H15C          -17.4470224716      -22.9480844901       20.5951026469  MEMB      34              0.0000000000
      4439        34  POPC      C11           -20.9004851971      -22.8954354057       18.0920348326  MEMB      34              0.0000000000
      4440        34  POPC      H11A          -19.9857732518      -22.5817725673       17.5450077063  MEMB      34              0.0000000000
      4441        34  POPC      H11B          -21.5960210338      -22.1285008291       17.6890928285  MEMB      34              0.0000000000
      4442        34  POPC      P             -22.4439028868      -24.9029782633       17.9060825696  MEMB      34              0.0000000000
      4443        34  POPC      O13           -23.5451627080      -24.1769574242       17.2536741346  MEMB      34              0.0000000000
      4444        34  POPC      O14           -22.4486456233      -25.0969405126       19.3584913621  MEMB      34              0.0000000000
      4445        34  POPC      O12           -21.0575511039      -24.1810537784       17.5534255835  MEMB      34              0.0000000000
      4446        34  POPC      O11           -22.3047864239      -26.3625544659       17.3195003992  MEMB      34              0.0000000000
      4447        34  POPC      C1            -21.2434283560      -27.2308295531       17.5853277673  MEMB      34              0.0000000000
      4448        34  POPC      HA            -21.6147513192      -28.1447714568       18.0963566871  MEMB      34              0.0000000000
      4449        34  POPC      HB            -20.4760193616      -26.7918530183       18.2581606244  MEMB      34              0.0000000000
      4450        34  POPC      C2            -20.3983513929      -27.7378963160       16.3680218747  MEMB      34              0.0000000000
      4451        34  POPC      HS            -19.4577059374      -28.2314716125       16.6934307544  MEMB      34              0.0000000000
      4452        34  POPC      O21           -20.0803995612      -26.7317949195       15.4386723593  MEMB      34              0.0000000000
      4453        34  POPC      C21           -19.1029538265      -25.8855703940       15.7138266699  MEMB      34              0.0000000000
      4454        34  POPC      O22           -18.4700298725      -25.8906842078       16.7805148048  MEMB      34              0.0000000000
      4455        34  POPC      C22           -18.8513036027      -25.0790344137       14.4250717182  MEMB      34              0.0000000000
      4456        34  POPC      H2R           -19.8212144916      -24.6731477534       14.0661150793  MEMB      34              0.0000000000
      4457        34  POPC      H2S           -18.3381538344      -25.7665965184       13.7191988117  MEMB      34              0.0000000000
      4458        34  POPC      C3            -21.1772118592      -28.8567799731       15.6420046384  MEMB      34              0.0000000000
      4459        34  POPC      HX            -21.5796653361      -29.6124271234       16.3500647458  MEMB      34              0.0000000000
      4460        34  POPC      HY            -20.4690592004      -29.3585400929       14.9484069968  MEMB      34              0.0000000000
      4461        34  POPC      O31           -22.3232419925      -28.1968390419       15.0021126019  MEMB      34              0.0000000000
      4462        34  POPC      C31           -22.2838790233      -27.9847773039       13.6436301429  MEMB      34              0.0000000000
      4463        34  POPC      O32           -21.4467340378      -28.4454776172       12.8807283014  MEMB      34              0.0000000000
      4464        34  POPC      C32           -23.5729521194      -27.3256322609       13.1998194260  MEMB      34              0.0000000000
      4465        34  POPC      H2X           -24.3648440395      -27.6033538916       13.9278981545  MEMB      34              0.0000000000
      4466        34  POPC      H2Y           -23.8453958388      -27.7163958411       12.1961270047  MEMB      34              0.0000000000
      4467        34  POPC      C23           -18.0378084696      -23.7813307037       14.6792614110  MEMB      34              0.0000000000
      4468        34  POPC      H3R           -17.1355866211      -24.0734219832       15.2580525142  MEMB      34              0.0000000000
      4469        34  POPC      H3S           -18.5918994333      -22.9467835559       15.1597142453  MEMB      34              0.0000000000
      4470        34  POPC      C24           -17.2651858341      -23.2423087387       13.4855102106  MEMB      34              0.0000000000
      4471        34  POPC      H4R           -16.6942096948      -24.0411491541       12.9657399139  MEMB      34              0.0000000000
      4472        34  POPC      H4S           -16.4506935010      -22.5880484568       13.8634872753  MEMB      34              0.0000000000
      4473        34  POPC      C25           -18.1252600280      -22.6888827585       12.3710194261  MEMB      34              0.0000000000
      4474        34  POPC      H5R           -18.8365385562      -22.0086487913       12.8864662812  MEMB      34              0.0000000000
      4475        34  POPC      H5S           -18.5262192415      -23.6194616108       11.9154149196  MEMB      34              0.0000000000
      4476        34  POPC      C26           -17.3485403166      -21.9589163520       11.2599639515  MEMB      34              0.0000000000
      4477        34  POPC      H6R           -16.5959236817      -22.7151523056       10.9501307364  MEMB      34              0.0000000000
      4478        34  POPC      H6S           -16.8206381683      -21.1132980507       11.7504431344  MEMB      34              0.0000000000
      4479        34  POPC      C27           -18.1311616385      -21.4334245522       10.0222664591  MEMB      34              0.0000000000
      4480        34  POPC      H7R           -18.6180796415      -20.4877703149       10.3431566533  MEMB      34              0.0000000000
      4481        34  POPC      H7S           -18.9472198234      -22.1646940265        9.8389231969  MEMB      34              0.0000000000
      4482        34  POPC      C28           -17.1548755093      -21.3345871173        8.7704745654  MEMB      34              0.0000000000
      4483        34  POPC      H8R           -17.3279765563      -22.3062072619        8.2602675520  MEMB      34              0.0000000000
      4484        34  POPC      H8S           -16.0997349645      -21.3591179312        9.1174580609  MEMB      34              0.0000000000
      4485        34  POPC      C29           -17.3240815704      -20.1874234693        7.7406909211  MEMB      34              0.0000000000
      4486        34  POPC      H91           -16.3848538323      -19.6994974494        7.4410586440  MEMB      34              0.0000000000
      4487        34  POPC      C210          -18.5250499094      -19.8131199633        7.2546599655  MEMB      34              0.0000000000
      4488        34  POPC      H101          -18.4313060944      -18.9000410175        6.6484420995  MEMB      34              0.0000000000
      4489        34  POPC      C211          -19.8993733251      -20.3176088468        7.5245548932  MEMB      34              0.0000000000
      4490        34  POPC      H11R          -20.6060718808      -19.4951200054        7.7662369621  MEMB      34              0.0000000000
      4491        34  POPC      H11S          -20.0520154694      -20.9708769167        8.4101406547  MEMB      34              0.0000000000
      4492        34  POPC      C212          -20.5326232705      -21.0103966394        6.2048870007  MEMB      34              0.0000000000
      4493        34  POPC      H12R          -20.0302185154      -21.9758685717        5.9817853629  MEMB      34              0.0000000000
      4494        34  POPC      H12S          -20.2349806838      -20.3759753527        5.3427741123  MEMB      34              0.0000000000
      4495        34  POPC      C213          -22.0588924025      -21.0658465919        6.3080572843  MEMB      34              0.0000000000
      4496        34  POPC      H13R          -22.4272733313      -20.0183071252        6.3437948881  MEMB      34              0.0000000000
      4497        34  POPC      H13S          -22.2151214325      -21.5408730252        7.3001569125  MEMB      34              0.0000000000
      4498        34  POPC      C214          -22.7748673208      -21.7419041595        5.1810759981  MEMB      34              0.0000000000
      4499        34  POPC      H14R          -22.6020146775      -21.2203622335        4.2154487441  MEMB      34              0.0000000000
      4500        34  POPC      H14S          -23.8580232841      -21.7397216119        5.4282385995  MEMB      34              0.0000000000
      4501        34  POPC      C215          -22.2842553418      -23.1551422956        4.8251538022  MEMB      34              0.0000000000
      4502        34  POPC      H15R          -22.0476427353      -23.6899460003        5.7697813662  MEMB      34              0.0000000000
      4503        34  POPC      H15S          -21.3561117595      -23.0257551963        4.2283877753  MEMB      34              0.0000000000
      4504        34  POPC      C216          -23.4045832917      -23.9636260827        4.0142015446  MEMB      34              0.0000000000
      4505        34  POPC      H16R          -24.2682965927      -24.0526818306        4.7073029172  MEMB      34              0.0000000000
      4506        34  POPC      H16S          -22.9549072761      -24.9743691089        3.9116773629  MEMB      34              0.0000000000
      4507        34  POPC      C217          -23.7276861687      -23.4153098887        2.5890171046  MEMB      34              0.0000000000
      4508        34  POPC      H17R          -22.7637631412      -23.2310541553        2.0682260130  MEMB      34              0.0000000000
      4509        34  POPC      H17S          -24.1697033789      -22.3987126162        2.6629904294  MEMB      34              0.0000000000
      4510        34  POPC      C218          -24.4848301616      -24.5155297169        1.8973730769  MEMB      34              0.0000000000
      4511        34  POPC      H18R          -25.5160030174      -24.6267476674        2.2956612427  MEMB      34              0.0000000000
      4512        34  POPC      H18S          -24.0711571589      -25.5454653921        1.9466447700  MEMB      34              0.0000000000
      4513        34  POPC      H18T          -24.3862608382      -24.2417057122        0.8251658256  MEMB      34              0.0000000000
      4514        34  POPC      C33           -23.3111525172      -25.7894379936       13.1613702780  MEMB      34              0.0000000000
      4515        34  POPC      H3X           -22.8806296107      -25.5308110228       14.1523714553  MEMB      34              0.0000000000
      4516        34  POPC      H3Y           -24.3072819117      -25.2976560791       13.1473080658  MEMB      34              0.0000000000
      4517        34  POPC      C34           -22.4566673052      -25.3790418692       11.9537221622  MEMB      34              0.0000000000
      4518        34  POPC      H4X           -22.9880765989      -25.8527017632       11.1007440809  MEMB      34              0.0000000000
      4519        34  POPC      H4Y           -21.3869475960      -25.6553625944       11.8368137922  MEMB      34              0.0000000000
      4520        34  POPC      C35           -22.3776929004      -23.7802167337       11.6975560099  MEMB      34              0.0000000000
      4521        34  POPC      H5X           -22.3349503750      -23.3605801258       12.7253685208  MEMB      34              0.0000000000
      4522        34  POPC      H5Y           -23.3467907073      -23.3913539870       11.3181405863  MEMB      34              0.0000000000
      4523        34  POPC      C36           -21.3512796817      -23.4262276033       10.5707162253  MEMB      34              0.0000000000
      4524        34  POPC      H6X           -20.3173530992      -23.6693325960       10.8966249264  MEMB      34              0.0000000000
      4525        34  POPC      H6Y           -21.4902419591      -22.3241342413       10.5506975033  MEMB      34              0.0000000000
      4526        34  POPC      C37           -21.6473414421      -23.9263621153        9.1464848376  MEMB      34              0.0000000000
      4527        34  POPC      H7X           -21.1112818213      -23.2380103585        8.4586384158  MEMB      34              0.0000000000
      4528        34  POPC      H7Y           -22.7542755375      -23.9280306456        9.0515374709  MEMB      34              0.0000000000
      4529        34  POPC      C38           -20.9993734684      -25.2399890888        8.8627714262  MEMB      34              0.0000000000
      4530        34  POPC      H8X           -21.4372298790      -25.8078710060        8.0141767987  MEMB      34              0.0000000000
      4531        34  POPC      H8Y           -21.0806301086      -25.9267568052        9.7322933011  MEMB      34              0.0000000000
      4532        34  POPC      C39           -19.5408571195      -25.0815346528        8.4851130841  MEMB      34              0.0000000000
      4533        34  POPC      H9X           -19.0247630518      -24.7023973824        9.3929802441  MEMB      34              0.0000000000
      4534        34  POPC      H9Y           -19.3396860709      -24.2999896460        7.7215435580  MEMB      34              0.0000000000
      4535        34  POPC      C310          -18.9167387746      -26.3553390612        7.9338299473  MEMB      34              0.0000000000
      4536        34  POPC      H10X          -18.9896574011      -27.2221841519        8.6249041791  MEMB      34              0.0000000000
      4537        34  POPC      H10Y          -17.8422210875      -26.1546846733        7.7351581071  MEMB      34              0.0000000000
      4538        34  POPC      C311          -19.6492000219      -26.8813879056        6.6374663626  MEMB      34              0.0000000000
      4539        34  POPC      H11X          -20.6649186383      -27.2217577447        6.9320599579  MEMB      34              0.0000000000
      4540        34  POPC      H11Y          -19.1009640563      -27.7972408738        6.3292921610  MEMB      34              0.0000000000
      4541        34  POPC      C312          -19.8258275820      -25.9118358714        5.5389465702  MEMB      34              0.0000000000
      4542        34  POPC      H12X          -18.8842588237      -25.3521864833        5.3530381748  MEMB      34              0.0000000000
      4543        34  POPC      H12Y          -20.6264439785      -25.1416298823        5.5497845622  MEMB      34              0.0000000000
      4544        34  POPC      C313          -20.2181041699      -26.5889389380        4.1429727069  MEMB      34              0.0000000000
      4545        34  POPC      H13X          -21.2776509317      -26.9138713652        4.2210771935  MEMB      34              0.0000000000
      4546        34  POPC      H13Y          -19.6776549407      -27.5298676628        3.9044594104  MEMB      34              0.0000000000
      4547        34  POPC      C314          -20.0606321315      -25.7716707088        2.8902579879  MEMB      34              0.0000000000
      4548        34  POPC      H14X          -19.0592122220      -25.3116422643        2.7493572722  MEMB      34              0.0000000000
      4549        34  POPC      H14Y          -20.6860289329      -24.8535840882        2.8724559936  MEMB      34              0.0000000000
      4550        34  POPC      C315          -20.4529352596      -26.4256886306        1.6079079765  MEMB      34              0.0000000000
      4551        34  POPC      H15X          -21.5359223942      -26.5145832372        1.3764819709  MEMB      34              0.0000000000
      4552        34  POPC      H15Y          -19.9781042357      -27.4292984504        1.6482042930  MEMB      34              0.0000000000
      4553        34  POPC      C316          -19.9528419649      -25.6735836019        0.3459144487  MEMB      34              0.0000000000
      4554        34  POPC      H16X          -18.9184372806      -25.3552860568        0.5969423563  MEMB      34              0.0000000000
      4555        34  POPC      H16Y          -20.6588643311      -24.8744470356        0.0340892190  MEMB      34              0.0000000000
      4556        34  POPC      H16Z          -19.9313027396      -26.3998580790       -0.4945499957  MEMB      34              0.0000000000
      4557        35  POPC      N              14.4674095796       28.4217553402       18.0764036095  MEMB      35              0.0000000000
      4558        35  POPC      C12            15.8999457737       28.2465287470       17.6167446413  MEMB      35              0.0000000000
      4559        35  POPC      H12A           15.8822811657       28.1336531652       16.5428047152  MEMB      35              0.0000000000
      4560        35  POPC      H12B           16.1835398450       27.2557092055       17.9396238632  MEMB      35              0.0000000000
      4561        35  POPC      C13            14.3168601332       28.6329886860       19.5578406726  MEMB      35              0.0000000000
      4562        35  POPC      H13A           13.2598137693       28.8121868658       19.6879980510  MEMB      35              0.0000000000
      4563        35  POPC      H13B           14.7178373868       27.8503421362       20.1848028294  MEMB      35              0.0000000000
      4564        35  POPC      H13C           14.8757996025       29.5315962842       19.7734585249  MEMB      35              0.0000000000
      4565        35  POPC      C14            13.9039299143       29.7255066095       17.4355206659  MEMB      35              0.0000000000
      4566        35  POPC      H14A           14.4623322971       30.5046690601       17.9330068862  MEMB      35              0.0000000000
      4567        35  POPC      H14B           14.0720165231       29.7055798660       16.3688669825  MEMB      35              0.0000000000
      4568        35  POPC      H14C           12.8797813386       29.9952440476       17.6470898239  MEMB      35              0.0000000000
      4569        35  POPC      C15            13.6121687689       27.2935221521       17.5070854544  MEMB      35              0.0000000000
      4570        35  POPC      H15A           12.5581616078       27.5238751747       17.5561407198  MEMB      35              0.0000000000
      4571        35  POPC      H15B           13.9150415592       26.3841769835       18.0048396439  MEMB      35              0.0000000000
      4572        35  POPC      H15C           13.8537815263       27.3205116062       16.4548047538  MEMB      35              0.0000000000
      4573        35  POPC      C11            16.9690507435       29.2593551897       18.0223312482  MEMB      35              0.0000000000
      4574        35  POPC      H11A           16.6876155868       30.2600149939       17.6301639594  MEMB      35              0.0000000000
      4575        35  POPC      H11B           17.9044394502       28.9680479296       17.4983950234  MEMB      35              0.0000000000
      4576        35  POPC      P              17.8539612185       28.2498235942       20.2403859578  MEMB      35              0.0000000000
      4577        35  POPC      O13            16.7998475245       27.1990684796       20.4469362867  MEMB      35              0.0000000000
      4578        35  POPC      O14            18.5099960708       28.8508425079       21.4340098221  MEMB      35              0.0000000000
      4579        35  POPC      O12            17.0982132015       29.4065180917       19.4384674694  MEMB      35              0.0000000000
      4580        35  POPC      O11            18.8685707663       27.8278080031       19.2242741172  MEMB      35              0.0000000000
      4581        35  POPC      C1             20.1303057411       28.4486835774       19.1091498724  MEMB      35              0.0000000000
      4582        35  POPC      HA             20.7485121085       28.0488977443       19.9412034691  MEMB      35              0.0000000000
      4583        35  POPC      HB             20.1014298052       29.5567086355       19.1850940631  MEMB      35              0.0000000000
      4584        35  POPC      C2             20.7564920878       28.1083334825       17.7393212182  MEMB      35              0.0000000000
      4585        35  POPC      HS             21.8605880068       28.2271032294       17.7048673541  MEMB      35              0.0000000000
      4586        35  POPC      O21            20.0883271496       28.9169026217       16.7546162959  MEMB      35              0.0000000000
      4587        35  POPC      C21            20.7862793510       29.1200971302       15.6246478496  MEMB      35              0.0000000000
      4588        35  POPC      O22            21.8747138651       28.7089343092       15.2781685018  MEMB      35              0.0000000000
      4589        35  POPC      C22            19.9436935133       30.0894368424       14.7800032231  MEMB      35              0.0000000000
      4590        35  POPC      H2R            20.0998668442       31.1048262601       15.2029870589  MEMB      35              0.0000000000
      4591        35  POPC      H2S            18.8541211879       29.9076716403       14.8988072253  MEMB      35              0.0000000000
      4592        35  POPC      C3             20.7201329878       26.6698166269       17.3068062812  MEMB      35              0.0000000000
      4593        35  POPC      HX             21.1165217457       25.9344519153       18.0392239671  MEMB      35              0.0000000000
      4594        35  POPC      HY             21.4676095689       26.5185533024       16.4988960020  MEMB      35              0.0000000000
      4595        35  POPC      O31            19.3614716846       26.3831961485       16.9562427460  MEMB      35              0.0000000000
      4596        35  POPC      C31            19.2778433917       25.3745620343       16.1531945736  MEMB      35              0.0000000000
      4597        35  POPC      O32            20.1901910600       24.5966231038       15.9238808963  MEMB      35              0.0000000000
      4598        35  POPC      C32            17.8996606451       25.3096628637       15.4735766069  MEMB      35              0.0000000000
      4599        35  POPC      H2X            17.3076406603       25.7680255877       16.2943912490  MEMB      35              0.0000000000
      4600        35  POPC      H2Y            17.6517255506       24.2540243266       15.2317576938  MEMB      35              0.0000000000
      4601        35  POPC      C23            20.4211567713       30.0201177414       13.2561045525  MEMB      35              0.0000000000
      4602        35  POPC      H3R            19.8443584468       29.2034334702       12.7716959909  MEMB      35              0.0000000000
      4603        35  POPC      H3S            21.5028912575       29.7908626776       13.1483373002  MEMB      35              0.0000000000
      4604        35  POPC      C24            20.0938010494       31.3551943834       12.6041447256  MEMB      35              0.0000000000
      4605        35  POPC      H4R            20.6713120219       32.2052703741       13.0262506243  MEMB      35              0.0000000000
      4606        35  POPC      H4S            19.0219088421       31.5977608713       12.7670239591  MEMB      35              0.0000000000
      4607        35  POPC      C25            20.4583491691       31.2257291944       11.1138591452  MEMB      35              0.0000000000
      4608        35  POPC      H5R            21.5531235427       31.0853621428       10.9870224719  MEMB      35              0.0000000000
      4609        35  POPC      H5S            20.1706539486       32.2211401285       10.7129729576  MEMB      35              0.0000000000
      4610        35  POPC      C26            19.6531473655       30.0877293641       10.3344886294  MEMB      35              0.0000000000
      4611        35  POPC      H6R            18.7594515108       29.8487477980       10.9497253598  MEMB      35              0.0000000000
      4612        35  POPC      H6S            20.3667825250       29.2366978886       10.3063592183  MEMB      35              0.0000000000
      4613        35  POPC      C27            19.3777694258       30.4748374802        8.8763761648  MEMB      35              0.0000000000
      4614        35  POPC      H7R            20.3400882524       30.6202090853        8.3405303082  MEMB      35              0.0000000000
      4615        35  POPC      H7S            18.7536056819       31.3818529338        9.0249130894  MEMB      35              0.0000000000
      4616        35  POPC      C28            18.4870472402       29.5273955801        8.1043661845  MEMB      35              0.0000000000
      4617        35  POPC      H8R            18.3293199806       29.7726354693        7.0323116255  MEMB      35              0.0000000000
      4618        35  POPC      H8S            17.4653566042       29.5562076274        8.5398418197  MEMB      35              0.0000000000
      4619        35  POPC      C29            18.9989035029       28.1340016702        8.2609115052  MEMB      35              0.0000000000
      4620        35  POPC      H91            18.9227266518       27.7873480030        9.3020775760  MEMB      35              0.0000000000
      4621        35  POPC      C210           19.8255809183       27.4539600891        7.3855208517  MEMB      35              0.0000000000
      4622        35  POPC      H101           20.2881388620       26.5007590190        7.6812367855  MEMB      35              0.0000000000
      4623        35  POPC      C211           20.3370905972       27.8585301177        6.0586625569  MEMB      35              0.0000000000
      4624        35  POPC      H11R           21.4220134864       27.6797864290        5.8995586476  MEMB      35              0.0000000000
      4625        35  POPC      H11S           20.3476993498       28.9661741407        5.9730275854  MEMB      35              0.0000000000
      4626        35  POPC      C212           19.6969837792       27.2553993532        4.8052702950  MEMB      35              0.0000000000
      4627        35  POPC      H12R           20.1055879988       27.7905993764        3.9215707703  MEMB      35              0.0000000000
      4628        35  POPC      H12S           18.6029668919       27.3562898062        4.9704021503  MEMB      35              0.0000000000
      4629        35  POPC      C213           19.9533070307       25.8080306725        4.6397578902  MEMB      35              0.0000000000
      4630        35  POPC      H13R           20.8125377843       25.4925254225        5.2694402546  MEMB      35              0.0000000000
      4631        35  POPC      H13S           20.3060122676       25.5464347053        3.6192248942  MEMB      35              0.0000000000
      4632        35  POPC      C214           18.6854840868       24.8986238082        4.9875513320  MEMB      35              0.0000000000
      4633        35  POPC      H14R           18.3890906836       25.1034615009        6.0385103040  MEMB      35              0.0000000000
      4634        35  POPC      H14S           19.0752773663       23.8584772139        4.9657117555  MEMB      35              0.0000000000
      4635        35  POPC      C215           17.4710671440       25.0396741850        4.0980492129  MEMB      35              0.0000000000
      4636        35  POPC      H15R           17.1735845708       26.1074303399        4.1736934135  MEMB      35              0.0000000000
      4637        35  POPC      H15S           16.7748544863       24.3295086919        4.5933002313  MEMB      35              0.0000000000
      4638        35  POPC      C216           17.7617298235       24.6575421533        2.6477259734  MEMB      35              0.0000000000
      4639        35  POPC      H16R           18.4273916357       23.7682015654        2.6647081774  MEMB      35              0.0000000000
      4640        35  POPC      H16S           18.3026100954       25.4410981350        2.0751813158  MEMB      35              0.0000000000
      4641        35  POPC      C217           16.5087301265       24.1337580975        1.8852281590  MEMB      35              0.0000000000
      4642        35  POPC      H17R           16.0263381510       23.4411963928        2.6077092233  MEMB      35              0.0000000000
      4643        35  POPC      H17S           16.9379996668       23.4163461633        1.1535395772  MEMB      35              0.0000000000
      4644        35  POPC      C218           15.5950189603       25.1530508960        1.2091584857  MEMB      35              0.0000000000
      4645        35  POPC      H18R           16.2034151670       25.7080438298        0.4633987897  MEMB      35              0.0000000000
      4646        35  POPC      H18S           15.2115483814       25.7715478209        2.0486410756  MEMB      35              0.0000000000
      4647        35  POPC      H18T           14.6518128858       24.6901640763        0.8480216490  MEMB      35              0.0000000000
      4648        35  POPC      C33            17.7674732421       26.1608955030       14.2597384557  MEMB      35              0.0000000000
      4649        35  POPC      H3X            18.3230025930       25.7446404010       13.3923058063  MEMB      35              0.0000000000
      4650        35  POPC      H3Y            18.1147157081       27.1997783835       14.4453887285  MEMB      35              0.0000000000
      4651        35  POPC      C34            16.3360868908       26.4239065350       13.9261861855  MEMB      35              0.0000000000
      4652        35  POPC      H4X            15.7773954591       26.8934897953       14.7638472481  MEMB      35              0.0000000000
      4653        35  POPC      H4Y            15.7726001029       25.4879128510       13.7243954098  MEMB      35              0.0000000000
      4654        35  POPC      C35            16.0091739162       27.4184889925       12.7664728711  MEMB      35              0.0000000000
      4655        35  POPC      H5X            16.5554103658       27.1115550827       11.8490100185  MEMB      35              0.0000000000
      4656        35  POPC      H5Y            16.3837598468       28.4119344069       13.0936922939  MEMB      35              0.0000000000
      4657        35  POPC      C36            14.4519501728       27.4487221720       12.4743736112  MEMB      35              0.0000000000
      4658        35  POPC      H6X            14.0664487637       27.8642910628       13.4298904359  MEMB      35              0.0000000000
      4659        35  POPC      H6Y            14.0057637480       26.4373883152       12.3628271801  MEMB      35              0.0000000000
      4660        35  POPC      C37            14.0365282110       28.2234086624       11.2370203690  MEMB      35              0.0000000000
      4661        35  POPC      H7X            14.2184048373       29.3152903535       11.3320807737  MEMB      35              0.0000000000
      4662        35  POPC      H7Y            12.9369464479       28.0683813467       11.2717744404  MEMB      35              0.0000000000
      4663        35  POPC      C38            14.4719276728       27.5955034519        9.8818910110  MEMB      35              0.0000000000
      4664        35  POPC      H8X            14.1472921317       26.5337023160        9.9207603319  MEMB      35              0.0000000000
      4665        35  POPC      H8Y            15.5742085057       27.6001081660        9.7430485564  MEMB      35              0.0000000000
      4666        35  POPC      C39            13.9505705731       28.3513435969        8.6208349245  MEMB      35              0.0000000000
      4667        35  POPC      H9X            14.1417384423       29.4396533684        8.7364122900  MEMB      35              0.0000000000
      4668        35  POPC      H9Y            12.8620959417       28.2803350150        8.4098820978  MEMB      35              0.0000000000
      4669        35  POPC      C310           14.6434433608       27.9237312772        7.3305574871  MEMB      35              0.0000000000
      4670        35  POPC      H10X           14.0097452546       27.0762383373        6.9921737848  MEMB      35              0.0000000000
      4671        35  POPC      H10Y           15.6380369494       27.5237545780        7.6223162222  MEMB      35              0.0000000000
      4672        35  POPC      C311           14.6967790617       28.9867679697        6.1903247414  MEMB      35              0.0000000000
      4673        35  POPC      H11X           15.4233950627       29.8036194642        6.3880712583  MEMB      35              0.0000000000
      4674        35  POPC      H11Y           13.7307947383       29.5274985850        6.0964831912  MEMB      35              0.0000000000
      4675        35  POPC      C312           15.2639415272       28.2968341847        4.9367545282  MEMB      35              0.0000000000
      4676        35  POPC      H12X           14.4622764133       27.6378950747        4.5399510183  MEMB      35              0.0000000000
      4677        35  POPC      H12Y           16.0943306723       27.6593621438        5.3087823801  MEMB      35              0.0000000000
      4678        35  POPC      C313           15.8828668119       29.1392745557        3.8940126098  MEMB      35              0.0000000000
      4679        35  POPC      H13X           16.7001548923       29.7666821640        4.3096102848  MEMB      35              0.0000000000
      4680        35  POPC      H13Y           15.1857916919       29.8638250441        3.4213251553  MEMB      35              0.0000000000
      4681        35  POPC      C314           16.2544359280       28.3928720629        2.5871234099  MEMB      35              0.0000000000
      4682        35  POPC      H14X           15.2894119928       28.1461917764        2.0949866132  MEMB      35              0.0000000000
      4683        35  POPC      H14Y           16.7912984607       27.4583129773        2.8567506673  MEMB      35              0.0000000000
      4684        35  POPC      C315           16.9688148819       29.1624805154        1.4483977910  MEMB      35              0.0000000000
      4685        35  POPC      H15X           16.2728973367       29.9769636685        1.1540560283  MEMB      35              0.0000000000
      4686        35  POPC      H15Y           17.2306854309       28.4579262277        0.6302597306  MEMB      35              0.0000000000
      4687        35  POPC      C316           18.2582319331       29.8990181120        1.8136198364  MEMB      35              0.0000000000
      4688        35  POPC      H16X           18.1073095303       30.6634690443        2.6055534797  MEMB      35              0.0000000000
      4689        35  POPC      H16Y           18.8409593198       30.3985563712        1.0103683885  MEMB      35              0.0000000000
      4690        35  POPC      H16Z           18.9175177529       29.1729131983        2.3355727895  MEMB      35              0.0000000000
      4691        36  POPC      N             -21.6843756429       19.7160938059       18.1016970472  MEMB      36              0.0000000000
      4692        36  POPC      C12           -22.0423907536       20.5133053200       19.4193995731  MEMB      36              0.0000000000
      4693        36  POPC      H12A          -21.5573798174       19.9545371328       20.2061285331  MEMB      36              0.0000000000
      4694        36  POPC      H12B          -23.1215134426       20.5029644302       19.4616789945  MEMB      36              0.0000000000
      4695        36  POPC      C13           -20.2139926334       19.8187701393       17.7789265836  MEMB      36              0.0000000000
      4696        36  POPC      H13A          -20.1199154984       19.1983441500       16.8999378885  MEMB      36              0.0000000000
      4697        36  POPC      H13B          -19.8643860850       20.7766703205       17.4231143307  MEMB      36              0.0000000000
      4698        36  POPC      H13C          -19.6057523405       19.3429312876       18.5339241127  MEMB      36              0.0000000000
      4699        36  POPC      C14           -21.9135179328       18.1465585616       18.2258955854  MEMB      36              0.0000000000
      4700        36  POPC      H14A          -21.1937564923       17.6301876675       18.8437180382  MEMB      36              0.0000000000
      4701        36  POPC      H14B          -22.8786452678       17.9473821519       18.6677758365  MEMB      36              0.0000000000
      4702        36  POPC      H14C          -21.9815556497       17.6506845920       17.2688795148  MEMB      36              0.0000000000
      4703        36  POPC      C15           -22.5245179982       20.2951231350       16.9844679822  MEMB      36              0.0000000000
      4704        36  POPC      H15A          -23.5797880385       20.2158471467       17.2001545974  MEMB      36              0.0000000000
      4705        36  POPC      H15B          -22.2033259901       19.8012680250       16.0792923381  MEMB      36              0.0000000000
      4706        36  POPC      H15C          -22.3398054082       21.3152498720       16.6817757838  MEMB      36              0.0000000000
      4707        36  POPC      C11           -21.7084600506       21.9705300512       19.6527577808  MEMB      36              0.0000000000
      4708        36  POPC      H11A          -22.0672357330       22.3769509041       20.6225119424  MEMB      36              0.0000000000
      4709        36  POPC      H11B          -22.1278421986       22.5942486834       18.8345801138  MEMB      36              0.0000000000
      4710        36  POPC      P             -19.7625267863       23.6655945907       19.8047012500  MEMB      36              0.0000000000
      4711        36  POPC      O13           -18.3092383533       23.6893336445       19.5860759852  MEMB      36              0.0000000000
      4712        36  POPC      O14           -20.2246079222       24.0651459053       21.1402985165  MEMB      36              0.0000000000
      4713        36  POPC      O12           -20.3002862257       22.0795777559       19.6693329762  MEMB      36              0.0000000000
      4714        36  POPC      O11           -20.6239776979       24.4307889956       18.6364467175  MEMB      36              0.0000000000
      4715        36  POPC      C1            -20.2098176632       25.6985050236       18.1512951858  MEMB      36              0.0000000000
      4716        36  POPC      HA            -19.2612272694       26.0792504978       18.5866458496  MEMB      36              0.0000000000
      4717        36  POPC      HB            -21.0042258348       26.4585603685       18.3111478297  MEMB      36              0.0000000000
      4718        36  POPC      C2            -19.9564199594       25.6731310365       16.6433423935  MEMB      36              0.0000000000
      4719        36  POPC      HS            -20.1807994267       26.6418930434       16.1478878137  MEMB      36              0.0000000000
      4720        36  POPC      O21           -20.7631538402       24.6066381722       16.0775486820  MEMB      36              0.0000000000
      4721        36  POPC      C21           -22.0646895804       24.7974567329       16.0987441443  MEMB      36              0.0000000000
      4722        36  POPC      O22           -22.6918556448       25.8282363227       16.3402394291  MEMB      36              0.0000000000
      4723        36  POPC      C22           -22.8343277963       23.5192896256       15.6618577428  MEMB      36              0.0000000000
      4724        36  POPC      H2R           -23.6370266544       23.2275333919       16.3724023768  MEMB      36              0.0000000000
      4725        36  POPC      H2S           -22.1264880658       22.6924207355       15.4392104791  MEMB      36              0.0000000000
      4726        36  POPC      C3            -18.4783575024       25.4031192897       16.2730245882  MEMB      36              0.0000000000
      4727        36  POPC      HX            -18.1832254276       24.4057698009       16.6635527924  MEMB      36              0.0000000000
      4728        36  POPC      HY            -17.9130624647       26.2854945049       16.6420445658  MEMB      36              0.0000000000
      4729        36  POPC      O31           -18.3568139933       25.3797988880       14.8461077332  MEMB      36              0.0000000000
      4730        36  POPC      C31           -17.1587774781       25.3293469817       14.4383141733  MEMB      36              0.0000000000
      4731        36  POPC      O32           -16.1510717488       25.7167208865       14.9577098085  MEMB      36              0.0000000000
      4732        36  POPC      C32           -17.3180129260       24.9114332074       12.9866326279  MEMB      36              0.0000000000
      4733        36  POPC      H2X           -18.1402098665       24.1764849520       12.8518575002  MEMB      36              0.0000000000
      4734        36  POPC      H2Y           -16.3760655588       24.4697893467       12.5967522945  MEMB      36              0.0000000000
      4735        36  POPC      C23           -23.7352629803       23.9392984025       14.4688885970  MEMB      36              0.0000000000
      4736        36  POPC      H3R           -24.5909334985       24.5060047790       14.8943215141  MEMB      36              0.0000000000
      4737        36  POPC      H3S           -24.1538520668       22.9399519617       14.2231024886  MEMB      36              0.0000000000
      4738        36  POPC      C24           -22.9640806544       24.6017179172       13.3187204464  MEMB      36              0.0000000000
      4739        36  POPC      H4R           -22.0764586201       23.9489116318       13.1762698344  MEMB      36              0.0000000000
      4740        36  POPC      H4S           -22.6224863506       25.5670396694       13.7497521655  MEMB      36              0.0000000000
      4741        36  POPC      C25           -23.8100344903       24.7835305791       12.0619239269  MEMB      36              0.0000000000
      4742        36  POPC      H5R           -24.5588125922       25.5157578990       12.4327272639  MEMB      36              0.0000000000
      4743        36  POPC      H5S           -24.4172219852       23.8980591585       11.7762938987  MEMB      36              0.0000000000
      4744        36  POPC      C26           -23.1958582003       25.3507878103       10.7769972344  MEMB      36              0.0000000000
      4745        36  POPC      H6R           -22.2957986498       24.7380390038       10.5561971104  MEMB      36              0.0000000000
      4746        36  POPC      H6S           -22.7385177885       26.3471585496       10.9570144471  MEMB      36              0.0000000000
      4747        36  POPC      C27           -24.0135509377       25.1418092579        9.4772655836  MEMB      36              0.0000000000
      4748        36  POPC      H7R           -25.0079977455       25.6033430962        9.6572182577  MEMB      36              0.0000000000
      4749        36  POPC      H7S           -24.2229935844       24.0507796148        9.4877153612  MEMB      36              0.0000000000
      4750        36  POPC      C28           -23.4952297007       25.8128356594        8.1377979553  MEMB      36              0.0000000000
      4751        36  POPC      H8R           -22.6079046426       25.1757562966        7.9350542797  MEMB      36              0.0000000000
      4752        36  POPC      H8S           -23.2204364901       26.8074620453        8.5495355423  MEMB      36              0.0000000000
      4753        36  POPC      C29           -24.4105268454       25.9239891470        6.9122924621  MEMB      36              0.0000000000
      4754        36  POPC      H91           -25.3760102823       26.4437585936        6.9999369787  MEMB      36              0.0000000000
      4755        36  POPC      C210          -24.1635756269       25.3982439197        5.7114300585  MEMB      36              0.0000000000
      4756        36  POPC      H101          -24.9341614424       25.5140400841        4.9350353764  MEMB      36              0.0000000000
      4757        36  POPC      C211          -22.9696091350       24.6102087250        5.3082939581  MEMB      36              0.0000000000
      4758        36  POPC      H11R          -23.1468545082       23.5135154391        5.2953044285  MEMB      36              0.0000000000
      4759        36  POPC      H11S          -22.1072670602       24.7787628416        5.9882032249  MEMB      36              0.0000000000
      4760        36  POPC      C212          -22.5685197417       25.1004132886        3.7695954618  MEMB      36              0.0000000000
      4761        36  POPC      H12R          -22.4003848174       26.1934568501        3.6632588316  MEMB      36              0.0000000000
      4762        36  POPC      H12S          -23.3368255994       24.6569907745        3.1007120327  MEMB      36              0.0000000000
      4763        36  POPC      C213          -21.2901630430       24.4850808181        3.2913672673  MEMB      36              0.0000000000
      4764        36  POPC      H13R          -21.4210024777       24.4452944007        2.1888157365  MEMB      36              0.0000000000
      4765        36  POPC      H13S          -21.3251971883       23.4632112280        3.7259657649  MEMB      36              0.0000000000
      4766        36  POPC      C214          -19.9922717472       25.2478259951        3.7192390627  MEMB      36              0.0000000000
      4767        36  POPC      H14R          -20.0382057051       25.6231138914        4.7639262447  MEMB      36              0.0000000000
      4768        36  POPC      H14S          -19.8535834510       26.1334975163        3.0629820761  MEMB      36              0.0000000000
      4769        36  POPC      C215          -18.7258717277       24.4565064409        3.4632240467  MEMB      36              0.0000000000
      4770        36  POPC      H15R          -18.6287383477       24.3354707262        2.3631160215  MEMB      36              0.0000000000
      4771        36  POPC      H15S          -18.8402055890       23.4116413562        3.8230932391  MEMB      36              0.0000000000
      4772        36  POPC      C216          -17.5383500544       25.1095157129        4.0865536184  MEMB      36              0.0000000000
      4773        36  POPC      H16R          -17.7108847495       25.3693756049        5.1528675204  MEMB      36              0.0000000000
      4774        36  POPC      H16S          -17.3532130989       26.1412030368        3.7182234629  MEMB      36              0.0000000000
      4775        36  POPC      C217          -16.1573349478       24.3622324339        3.9943671105  MEMB      36              0.0000000000
      4776        36  POPC      H17R          -16.0177317942       23.6332150979        4.8210263302  MEMB      36              0.0000000000
      4777        36  POPC      H17S          -15.4252832383       25.1860443788        4.1349208704  MEMB      36              0.0000000000
      4778        36  POPC      C218          -16.0419581411       23.6132040295        2.6863211914  MEMB      36              0.0000000000
      4779        36  POPC      H18R          -16.7277977300       22.7399426752        2.7232001487  MEMB      36              0.0000000000
      4780        36  POPC      H18S          -14.9821326651       23.3023049719        2.5661861485  MEMB      36              0.0000000000
      4781        36  POPC      H18T          -16.2350119033       24.3556681082        1.8827042024  MEMB      36              0.0000000000
      4782        36  POPC      C33           -17.5937883789       26.1902578249       12.1687924315  MEMB      36              0.0000000000
      4783        36  POPC      H3X           -16.8089986316       26.9617129698       12.3213812245  MEMB      36              0.0000000000
      4784        36  POPC      H3Y           -18.5185709975       26.6549347902       12.5727395755  MEMB      36              0.0000000000
      4785        36  POPC      C34           -18.1644324888       26.1478819542       10.7294534865  MEMB      36              0.0000000000
      4786        36  POPC      H4X           -17.3529598714       26.2788876824        9.9820108624  MEMB      36              0.0000000000
      4787        36  POPC      H4Y           -18.8025260859       27.0501389315       10.6150426174  MEMB      36              0.0000000000
      4788        36  POPC      C35           -18.9315079133       24.8576278273       10.4053772856  MEMB      36              0.0000000000
      4789        36  POPC      H5X           -19.7268285658       24.6274599605       11.1461940448  MEMB      36              0.0000000000
      4790        36  POPC      H5Y           -18.2687068134       23.9660482405       10.4154534994  MEMB      36              0.0000000000
      4791        36  POPC      C36           -19.5726727972       24.7176604035        9.0868456890  MEMB      36              0.0000000000
      4792        36  POPC      H6X           -18.7628594117       24.7677328169        8.3278889472  MEMB      36              0.0000000000
      4793        36  POPC      H6Y           -20.3956868044       25.4255921667        8.8506220826  MEMB      36              0.0000000000
      4794        36  POPC      C37           -20.2658392863       23.3206508796        8.9362766965  MEMB      36              0.0000000000
      4795        36  POPC      H7X           -20.7883950386       23.2632539306        7.9575214255  MEMB      36              0.0000000000
      4796        36  POPC      H7Y           -21.0468673612       23.2287113570        9.7210468769  MEMB      36              0.0000000000
      4797        36  POPC      C38           -19.2530142886       22.1149429076        8.8953408626  MEMB      36              0.0000000000
      4798        36  POPC      H8X           -18.8088071456       21.7910877399        9.8608039755  MEMB      36              0.0000000000
      4799        36  POPC      H8Y           -18.4269142184       22.5638452618        8.3034240017  MEMB      36              0.0000000000
      4800        36  POPC      C39           -19.7073675463       20.8552477280        8.1844439831  MEMB      36              0.0000000000
      4801        36  POPC      H9X           -20.7650759355       20.6899825436        8.4815312534  MEMB      36              0.0000000000
      4802        36  POPC      H9Y           -18.9821075378       20.0771061571        8.5050906183  MEMB      36              0.0000000000
      4803        36  POPC      C310          -19.6991900937       21.0669242585        6.6415171313  MEMB      36              0.0000000000
      4804        36  POPC      H10X          -18.7038379427       21.4325251919        6.3099591353  MEMB      36              0.0000000000
      4805        36  POPC      H10Y          -20.4415582775       21.8694025660        6.4434296649  MEMB      36              0.0000000000
      4806        36  POPC      C311          -20.1889320901       19.8487061459        5.7674888108  MEMB      36              0.0000000000
      4807        36  POPC      H11X          -21.0270937037       19.2604049360        6.1984268571  MEMB      36              0.0000000000
      4808        36  POPC      H11Y          -19.3402437291       19.1423627543        5.6444948121  MEMB      36              0.0000000000
      4809        36  POPC      C312          -20.2917498822       20.3166435642        4.2226407383  MEMB      36              0.0000000000
      4810        36  POPC      H12X          -19.3300218188       20.4499049446        3.6826030339  MEMB      36              0.0000000000
      4811        36  POPC      H12Y          -20.8426514476       21.2813022264        4.2064586095  MEMB      36              0.0000000000
      4812        36  POPC      C313          -21.1902441842       19.4249612070        3.4158739463  MEMB      36              0.0000000000
      4813        36  POPC      H13X          -22.2627282458       19.5248519444        3.6881246168  MEMB      36              0.0000000000
      4814        36  POPC      H13Y          -20.8425164448       18.3905002834        3.6239525173  MEMB      36              0.0000000000
      4815        36  POPC      C314          -21.1059881501       19.6905157254        1.8683699735  MEMB      36              0.0000000000
      4816        36  POPC      H14X          -21.7736161791       18.9020020840        1.4599098550  MEMB      36              0.0000000000
      4817        36  POPC      H14Y          -20.0687909418       19.3938519300        1.6027891674  MEMB      36              0.0000000000
      4818        36  POPC      C315          -21.4713602846       21.0657834063        1.4290123786  MEMB      36              0.0000000000
      4819        36  POPC      H15X          -20.8314184484       21.7263375014        2.0522797363  MEMB      36              0.0000000000
      4820        36  POPC      H15Y          -22.5599589259       21.2367178550        1.5706297498  MEMB      36              0.0000000000
      4821        36  POPC      C316          -21.2117815084       21.2611356076       -0.0995877873  MEMB      36              0.0000000000
      4822        36  POPC      H16X          -21.4249597168       22.3182609854       -0.3667249967  MEMB      36              0.0000000000
      4823        36  POPC      H16Y          -21.8355025526       20.5654632341       -0.7006975379  MEMB      36              0.0000000000
      4824        36  POPC      H16Z          -20.1468088206       21.0203143379       -0.3049152951  MEMB      36              0.0000000000
      4825        37  POPC      N              25.5055426920       -3.4180036199       19.7022706415  MEMB      37              0.0000000000
      4826        37  POPC      C12            25.4953853585       -1.9231948774       19.3898278752  MEMB      37              0.0000000000
      4827        37  POPC      H12A           26.0546407693       -1.4324525567       20.1726466994  MEMB      37              0.0000000000
      4828        37  POPC      H12B           24.5108016662       -1.4826923736       19.3354915229  MEMB      37              0.0000000000
      4829        37  POPC      C13            26.9112329526       -3.8163640267       19.9627947922  MEMB      37              0.0000000000
      4830        37  POPC      H13A           27.4483297767       -3.8548959338       19.0266098552  MEMB      37              0.0000000000
      4831        37  POPC      H13B           27.4156180147       -3.1341609689       20.6310721602  MEMB      37              0.0000000000
      4832        37  POPC      H13C           26.9144373802       -4.8038603774       20.4001054865  MEMB      37              0.0000000000
      4833        37  POPC      C14            24.7989404880       -3.7906335028       20.9465451323  MEMB      37              0.0000000000
      4834        37  POPC      H14A           24.5728571853       -4.8345410413       21.1063681959  MEMB      37              0.0000000000
      4835        37  POPC      H14B           25.3511234775       -3.4754313665       21.8195524330  MEMB      37              0.0000000000
      4836        37  POPC      H14C           23.9146544376       -3.1712575980       20.9180552025  MEMB      37              0.0000000000
      4837        37  POPC      C15            25.0209882653       -4.2049961238       18.4740429419  MEMB      37              0.0000000000
      4838        37  POPC      H15A           24.0289286642       -3.8425985689       18.2484642743  MEMB      37              0.0000000000
      4839        37  POPC      H15B           24.8947066200       -5.2130846107       18.8403904228  MEMB      37              0.0000000000
      4840        37  POPC      H15C           25.6620736265       -3.9899265825       17.6319296500  MEMB      37              0.0000000000
      4841        37  POPC      C11            25.9730464345       -1.3586097792       18.0266862910  MEMB      37              0.0000000000
      4842        37  POPC      H11A           25.7186933912       -0.2821724048       17.9222442494  MEMB      37              0.0000000000
      4843        37  POPC      H11B           25.4294222693       -1.8808070792       17.2105345547  MEMB      37              0.0000000000
      4844        37  POPC      P              28.4903319448       -0.7743795694       18.5734442138  MEMB      37              0.0000000000
      4845        37  POPC      O13            28.9691465525       -1.5260817744       19.7867640208  MEMB      37              0.0000000000
      4846        37  POPC      O14            27.9321895816        0.5994493988       18.8014284224  MEMB      37              0.0000000000
      4847        37  POPC      O12            27.3692069744       -1.6973210531       17.8465910312  MEMB      37              0.0000000000
      4848        37  POPC      O11            29.6272472104       -0.6729229350       17.4896046373  MEMB      37              0.0000000000
      4849        37  POPC      C1             30.1541226435       -1.8587141621       16.8633059989  MEMB      37              0.0000000000
      4850        37  POPC      HA             29.4058871783       -2.6787524356       16.8185636447  MEMB      37              0.0000000000
      4851        37  POPC      HB             31.0284838681       -2.2108688367       17.4513539829  MEMB      37              0.0000000000
      4852        37  POPC      C2             30.4646654384       -1.5597094276       15.3397251135  MEMB      37              0.0000000000
      4853        37  POPC      HS             31.4108958861       -0.9775034199       15.3374416335  MEMB      37              0.0000000000
      4854        37  POPC      O21            29.3650456428       -0.8447761470       14.8325639868  MEMB      37              0.0000000000
      4855        37  POPC      C21            29.6151576340        0.0710652639       13.8129921527  MEMB      37              0.0000000000
      4856        37  POPC      O22            30.7215360642        0.4220024468       13.3856883014  MEMB      37              0.0000000000
      4857        37  POPC      C22            28.2485498178        0.4232600911       13.2429389601  MEMB      37              0.0000000000
      4858        37  POPC      H2R            28.4622518024        1.2426786152       12.5237685980  MEMB      37              0.0000000000
      4859        37  POPC      H2S            27.6409518536        0.8105962770       14.0885845120  MEMB      37              0.0000000000
      4860        37  POPC      C3             30.6346197091       -2.8461484181       14.5004154542  MEMB      37              0.0000000000
      4861        37  POPC      HX             31.4377491880       -3.4394774998       14.9875137400  MEMB      37              0.0000000000
      4862        37  POPC      HY             30.8156455677       -2.6810181671       13.4167724244  MEMB      37              0.0000000000
      4863        37  POPC      O31            29.3862728674       -3.5499001087       14.5768832873  MEMB      37              0.0000000000
      4864        37  POPC      C31            29.4261994365       -4.7341160670       15.1286158340  MEMB      37              0.0000000000
      4865        37  POPC      O32            30.3789981527       -5.3357629700       15.5963001208  MEMB      37              0.0000000000
      4866        37  POPC      C32            28.0065270811       -5.3280563976       15.0031402657  MEMB      37              0.0000000000
      4867        37  POPC      H2X            27.2105223743       -4.6051004548       14.7237982614  MEMB      37              0.0000000000
      4868        37  POPC      H2Y            27.6079672854       -5.7513508512       15.9498674431  MEMB      37              0.0000000000
      4869        37  POPC      C23            27.5135810196       -0.9444663225       12.7718958378  MEMB      37              0.0000000000
      4870        37  POPC      H3R            27.2141683058       -1.4316662527       13.7244236888  MEMB      37              0.0000000000
      4871        37  POPC      H3S            28.2798096616       -1.5266881333       12.2167088905  MEMB      37              0.0000000000
      4872        37  POPC      C24            26.3522546475       -0.8126351614       11.8177159174  MEMB      37              0.0000000000
      4873        37  POPC      H4R            26.5462195158       -0.1628073829       10.9377028865  MEMB      37              0.0000000000
      4874        37  POPC      H4S            25.5127223868       -0.2641764611       12.2959413397  MEMB      37              0.0000000000
      4875        37  POPC      C25            25.8302118960       -2.1229371317       11.1960807131  MEMB      37              0.0000000000
      4876        37  POPC      H5R            25.3881166670       -2.8041625455       11.9542393999  MEMB      37              0.0000000000
      4877        37  POPC      H5S            26.6003732897       -2.7329710677       10.6773991272  MEMB      37              0.0000000000
      4878        37  POPC      C26            24.7326692265       -1.8698294912       10.1516754587  MEMB      37              0.0000000000
      4879        37  POPC      H6R            23.8531392926       -1.5142877937       10.7298949305  MEMB      37              0.0000000000
      4880        37  POPC      H6S            24.3723543918       -2.8570761968        9.7913446922  MEMB      37              0.0000000000
      4881        37  POPC      C27            24.9880416523       -0.9090804679        9.0430147918  MEMB      37              0.0000000000
      4882        37  POPC      H7R            25.1451834077        0.1245732863        9.4187642895  MEMB      37              0.0000000000
      4883        37  POPC      H7S            24.0424887759       -0.8784718564        8.4605083810  MEMB      37              0.0000000000
      4884        37  POPC      C28            26.1175901250       -1.3030713600        8.0974109661  MEMB      37              0.0000000000
      4885        37  POPC      H8R            25.7288185062       -2.1869354141        7.5479004732  MEMB      37              0.0000000000
      4886        37  POPC      H8S            27.0089970499       -1.5523961374        8.7118639892  MEMB      37              0.0000000000
      4887        37  POPC      C29            26.4081548673       -0.2410857007        7.0662296801  MEMB      37              0.0000000000
      4888        37  POPC      H91            25.6269331821        0.0627574834        6.3539290605  MEMB      37              0.0000000000
      4889        37  POPC      C210           27.5777931683        0.4485909582        7.0893056499  MEMB      37              0.0000000000
      4890        37  POPC      H101           27.6592600944        1.3547532657        6.4710557513  MEMB      37              0.0000000000
      4891        37  POPC      C211           28.7406151589        0.2421290097        8.0264903665  MEMB      37              0.0000000000
      4892        37  POPC      H11R           28.9250571286       -0.8229946807        8.2830319968  MEMB      37              0.0000000000
      4893        37  POPC      H11S           28.5302624074        0.6917805882        9.0204148186  MEMB      37              0.0000000000
      4894        37  POPC      C212           29.8729799660        1.0284670795        7.3827654478  MEMB      37              0.0000000000
      4895        37  POPC      H12R           30.5819176386        1.3280601993        8.1839974151  MEMB      37              0.0000000000
      4896        37  POPC      H12S           29.4803694155        2.0259295942        7.0907958379  MEMB      37              0.0000000000
      4897        37  POPC      C213           30.7222837926        0.3022869641        6.3086430318  MEMB      37              0.0000000000
      4898        37  POPC      H13R           30.7830445576       -0.7441282125        6.6769433417  MEMB      37              0.0000000000
      4899        37  POPC      H13S           31.7270211962        0.7748879783        6.3470081385  MEMB      37              0.0000000000
      4900        37  POPC      C214           30.2562692842        0.2340234651        4.7855671202  MEMB      37              0.0000000000
      4901        37  POPC      H14R           29.2736790837       -0.2790140601        4.8606013950  MEMB      37              0.0000000000
      4902        37  POPC      H14S           30.9877403847       -0.2848782501        4.1298138886  MEMB      37              0.0000000000
      4903        37  POPC      C215           30.0248468262        1.6198521229        4.1858556556  MEMB      37              0.0000000000
      4904        37  POPC      H15R           30.9574548405        2.2235724698        4.1766641960  MEMB      37              0.0000000000
      4905        37  POPC      H15S           29.3794371156        2.1950595670        4.8836408751  MEMB      37              0.0000000000
      4906        37  POPC      C216           29.4073738127        1.4598023964        2.7873210268  MEMB      37              0.0000000000
      4907        37  POPC      H16R           29.7337692340        0.5376732232        2.2605707317  MEMB      37              0.0000000000
      4908        37  POPC      H16S           29.7219485431        2.3406453507        2.1877536894  MEMB      37              0.0000000000
      4909        37  POPC      C217           27.8987959252        1.3258432360        2.7329118083  MEMB      37              0.0000000000
      4910        37  POPC      H17R           27.6203359664        0.7665863261        3.6516127371  MEMB      37              0.0000000000
      4911        37  POPC      H17S           27.4899771517        0.7774512889        1.8574386697  MEMB      37              0.0000000000
      4912        37  POPC      C218           27.1286525978        2.6517649862        2.8357026083  MEMB      37              0.0000000000
      4913        37  POPC      H18R           26.0505078758        2.4119349573        2.7156748598  MEMB      37              0.0000000000
      4914        37  POPC      H18S           27.4168694509        3.2762788494        1.9632135506  MEMB      37              0.0000000000
      4915        37  POPC      H18T           27.3048821042        3.1977800301        3.7870857116  MEMB      37              0.0000000000
      4916        37  POPC      C33            27.9514162256       -6.5491857099       14.0515973030  MEMB      37              0.0000000000
      4917        37  POPC      H3X            27.0560125828       -7.1253124079       14.3688530878  MEMB      37              0.0000000000
      4918        37  POPC      H3Y            28.7879687749       -7.2793451450       14.0146094337  MEMB      37              0.0000000000
      4919        37  POPC      C34            27.6804501773       -6.0343962601       12.6350800263  MEMB      37              0.0000000000
      4920        37  POPC      H4X            28.5934602691       -5.4169982198       12.4952471102  MEMB      37              0.0000000000
      4921        37  POPC      H4Y            26.8453942938       -5.3026905174       12.5949614218  MEMB      37              0.0000000000
      4922        37  POPC      C35            27.5367289296       -7.0041508387       11.4999425644  MEMB      37              0.0000000000
      4923        37  POPC      H5X            26.8566235046       -7.8348958052       11.7856706719  MEMB      37              0.0000000000
      4924        37  POPC      H5Y            28.5145498296       -7.5311456110       11.4783865392  MEMB      37              0.0000000000
      4925        37  POPC      C36            27.1638364835       -6.3708748693       10.1657056540  MEMB      37              0.0000000000
      4926        37  POPC      H6X            26.1676458992       -5.8825968544       10.2249491657  MEMB      37              0.0000000000
      4927        37  POPC      H6Y            27.0165485666       -7.2105108649        9.4532178170  MEMB      37              0.0000000000
      4928        37  POPC      C37            28.2317448826       -5.4135640242        9.6115454781  MEMB      37              0.0000000000
      4929        37  POPC      H7X            29.1036580913       -6.0953142316        9.5150822435  MEMB      37              0.0000000000
      4930        37  POPC      H7Y            28.6573833539       -4.6545456628       10.3022292508  MEMB      37              0.0000000000
      4931        37  POPC      C38            27.9489551919       -4.6917464336        8.3180599311  MEMB      37              0.0000000000
      4932        37  POPC      H8X            27.0697721955       -4.0125652640        8.3096337933  MEMB      37              0.0000000000
      4933        37  POPC      H8Y            27.8219963485       -5.6459578634        7.7633679489  MEMB      37              0.0000000000
      4934        37  POPC      C39            29.2795693773       -4.0817329049        7.7346848678  MEMB      37              0.0000000000
      4935        37  POPC      H9X            30.0123134248       -4.9162353486        7.7665149151  MEMB      37              0.0000000000
      4936        37  POPC      H9Y            29.4475879665       -3.3647233893        8.5665427591  MEMB      37              0.0000000000
      4937        37  POPC      C310           28.9777761179       -3.2891416093        6.4382341096  MEMB      37              0.0000000000
      4938        37  POPC      H10X           29.9701657682       -2.7949508218        6.3657123225  MEMB      37              0.0000000000
      4939        37  POPC      H10Y           28.1815468926       -2.5340411107        6.6119098060  MEMB      37              0.0000000000
      4940        37  POPC      C311           28.8209495561       -4.1881825135        5.1613854009  MEMB      37              0.0000000000
      4941        37  POPC      H11X           29.0425712143       -5.2536042955        5.3851736806  MEMB      37              0.0000000000
      4942        37  POPC      H11Y           29.4424938409       -3.8195980443        4.3174960596  MEMB      37              0.0000000000
      4943        37  POPC      C312           27.4537405463       -3.9573521395        4.5673831567  MEMB      37              0.0000000000
      4944        37  POPC      H12X           27.2065817648       -2.8983582934        4.3398625129  MEMB      37              0.0000000000
      4945        37  POPC      H12Y           26.7317340513       -4.3246610554        5.3277195612  MEMB      37              0.0000000000
      4946        37  POPC      C313           27.2143126747       -4.7957850432        3.2694813685  MEMB      37              0.0000000000
      4947        37  POPC      H13X           26.1062438282       -4.7958831559        3.1888309607  MEMB      37              0.0000000000
      4948        37  POPC      H13Y           27.4384755087       -5.8275576646        3.6151938158  MEMB      37              0.0000000000
      4949        37  POPC      C314           27.8640538484       -4.3335565500        2.0284729153  MEMB      37              0.0000000000
      4950        37  POPC      H14X           27.7940998830       -5.1965101033        1.3322413701  MEMB      37              0.0000000000
      4951        37  POPC      H14Y           28.9480177912       -4.0963013812        2.0837271507  MEMB      37              0.0000000000
      4952        37  POPC      C315           27.3102058518       -2.9901759768        1.4107530495  MEMB      37              0.0000000000
      4953        37  POPC      H15X           27.4063521710       -2.1649534759        2.1483732523  MEMB      37              0.0000000000
      4954        37  POPC      H15Y           26.2254133759       -3.0196527081        1.1726820405  MEMB      37              0.0000000000
      4955        37  POPC      C316           27.9492162825       -2.4993045250        0.0906785774  MEMB      37              0.0000000000
      4956        37  POPC      H16X           27.3678978489       -1.7656243483       -0.5077390442  MEMB      37              0.0000000000
      4957        37  POPC      H16Y           28.0845711962       -3.3238459044       -0.6415305626  MEMB      37              0.0000000000
      4958        37  POPC      H16Z           28.9556004664       -2.0871324459        0.3178916129  MEMB      37              0.0000000000
      4959        38  POPC      N              18.2288784540      -22.5347326120       20.1240741860  MEMB      38              0.0000000000
      4960        38  POPC      C12            19.4261363333      -23.4127637234       20.5430060862  MEMB      38              0.0000000000
      4961        38  POPC      H12A           19.0955141214      -24.0510940650       21.3489982085  MEMB      38              0.0000000000
      4962        38  POPC      H12B           20.2029384721      -22.8083023783       20.9875338749  MEMB      38              0.0000000000
      4963        38  POPC      C13            16.9971513235      -23.3986684694       20.0124483139  MEMB      38              0.0000000000
      4964        38  POPC      H13A           16.7876232490      -23.9021802693       20.9446360420  MEMB      38              0.0000000000
      4965        38  POPC      H13B           16.1130656941      -22.8078820354       19.8233340484  MEMB      38              0.0000000000
      4966        38  POPC      H13C           17.0767244383      -24.1662188503       19.2568461553  MEMB      38              0.0000000000
      4967        38  POPC      C14            18.0506758324      -21.3628648856       21.0442910879  MEMB      38              0.0000000000
      4968        38  POPC      H14A           17.0485159372      -20.9733650958       20.9424805088  MEMB      38              0.0000000000
      4969        38  POPC      H14B           18.2817796210      -21.6997817934       22.0440301033  MEMB      38              0.0000000000
      4970        38  POPC      H14C           18.7152575342      -20.5410748187       20.8220470778  MEMB      38              0.0000000000
      4971        38  POPC      C15            18.5318815362      -21.9889629560       18.7244461334  MEMB      38              0.0000000000
      4972        38  POPC      H15A           19.5226760251      -21.5615296737       18.7694694151  MEMB      38              0.0000000000
      4973        38  POPC      H15B           17.8936908394      -21.1675261460       18.4340083700  MEMB      38              0.0000000000
      4974        38  POPC      H15C           18.5434041856      -22.7438438196       17.9521622830  MEMB      38              0.0000000000
      4975        38  POPC      C11            20.0680263508      -24.3627124598       19.4725628236  MEMB      38              0.0000000000
      4976        38  POPC      H11A           20.9254194073      -24.9027291811       19.9281723347  MEMB      38              0.0000000000
      4977        38  POPC      H11B           20.5146441307      -23.9177781819       18.5577475524  MEMB      38              0.0000000000
      4978        38  POPC      P              19.7527697237      -26.4084178633       17.8155045379  MEMB      38              0.0000000000
      4979        38  POPC      O13            18.7749753921      -27.5199937675       17.6690415871  MEMB      38              0.0000000000
      4980        38  POPC      O14            21.1365730880      -26.7098680191       18.0713141392  MEMB      38              0.0000000000
      4981        38  POPC      O12            19.2039979232      -25.3445217335       19.0048033594  MEMB      38              0.0000000000
      4982        38  POPC      O11            19.6255770911      -25.4875541746       16.5185077505  MEMB      38              0.0000000000
      4983        38  POPC      C1             18.4121858277      -25.4672918710       15.7992871656  MEMB      38              0.0000000000
      4984        38  POPC      HA             18.2000836286      -24.3811553952       15.7010971562  MEMB      38              0.0000000000
      4985        38  POPC      HB             17.5535186388      -25.9054082754       16.3516147804  MEMB      38              0.0000000000
      4986        38  POPC      C2             18.5967831314      -26.2254212233       14.4736722092  MEMB      38              0.0000000000
      4987        38  POPC      HS             18.9010655782      -27.2781362047       14.6567686231  MEMB      38              0.0000000000
      4988        38  POPC      O21            19.5884530308      -25.6224539358       13.6337105521  MEMB      38              0.0000000000
      4989        38  POPC      C21            20.7766596071      -26.2228643706       13.3889406105  MEMB      38              0.0000000000
      4990        38  POPC      O22            21.0307457520      -27.3747748527       13.6392083646  MEMB      38              0.0000000000
      4991        38  POPC      C22            21.6801912760      -25.3367628639       12.5644722945  MEMB      38              0.0000000000
      4992        38  POPC      H2R            22.3274730272      -25.9697350394       11.9205052298  MEMB      38              0.0000000000
      4993        38  POPC      H2S            22.2999928472      -24.6947539614       13.2262815816  MEMB      38              0.0000000000
      4994        38  POPC      C3             17.2127927208      -26.3173300601       13.6914612163  MEMB      38              0.0000000000
      4995        38  POPC      HX             17.0448541944      -25.2285392705       13.5477523978  MEMB      38              0.0000000000
      4996        38  POPC      HY             16.3106017252      -26.7515782228       14.1729185783  MEMB      38              0.0000000000
      4997        38  POPC      O31            17.3263245067      -26.8969457379       12.4008953549  MEMB      38              0.0000000000
      4998        38  POPC      C31            17.3901316473      -28.2762572573       12.3840090179  MEMB      38              0.0000000000
      4999        38  POPC      O32            17.1936549489      -29.0175651120       13.3429691885  MEMB      38              0.0000000000
      5000        38  POPC      C32            17.6944837032      -28.7557969316       10.9855019941  MEMB      38              0.0000000000
      5001        38  POPC      H2X            17.4575922666      -29.8412479525       10.9857861742  MEMB      38              0.0000000000
      5002        38  POPC      H2Y            18.7139120023      -28.5457261925       10.5969703678  MEMB      38              0.0000000000
      5003        38  POPC      C23            20.8063186396      -24.4043614796       11.6584389213  MEMB      38              0.0000000000
      5004        38  POPC      H3R            21.4002559662      -23.4772226571       11.5102062234  MEMB      38              0.0000000000
      5005        38  POPC      H3S            19.8584571049      -23.9780978124       12.0510952677  MEMB      38              0.0000000000
      5006        38  POPC      C24            20.3149170862      -24.9712281839       10.3048984603  MEMB      38              0.0000000000
      5007        38  POPC      H4R            19.5477577278      -25.6977818803       10.6482744490  MEMB      38              0.0000000000
      5008        38  POPC      H4S            21.1796294859      -25.4083235312        9.7612609972  MEMB      38              0.0000000000
      5009        38  POPC      C25            19.8052339038      -23.8402963185        9.3914008124  MEMB      38              0.0000000000
      5010        38  POPC      H5R            19.4147811996      -24.2391534518        8.4307857884  MEMB      38              0.0000000000
      5011        38  POPC      H5S            20.7247370821      -23.2637174533        9.1539308676  MEMB      38              0.0000000000
      5012        38  POPC      C26            18.7445206801      -22.9478721170        9.9527998187  MEMB      38              0.0000000000
      5013        38  POPC      H6R            18.5937580371      -22.0244811542        9.3536824500  MEMB      38              0.0000000000
      5014        38  POPC      H6S            19.0231660447      -22.5457192888       10.9502717544  MEMB      38              0.0000000000
      5015        38  POPC      C27            17.4113322652      -23.7693570542       10.0482669334  MEMB      38              0.0000000000
      5016        38  POPC      H7R            16.7842321965      -23.5274777475       10.9328909991  MEMB      38              0.0000000000
      5017        38  POPC      H7S            17.6414502884      -24.8267779287       10.2997184711  MEMB      38              0.0000000000
      5018        38  POPC      C28            16.5284041985      -23.5681938597        8.7656871311  MEMB      38              0.0000000000
      5019        38  POPC      H8R            17.3677622366      -23.6660846989        8.0444273225  MEMB      38              0.0000000000
      5020        38  POPC      H8S            16.0924391802      -22.5512961166        8.6648184280  MEMB      38              0.0000000000
      5021        38  POPC      C29            15.4033048378      -24.6216575804        8.5198996377  MEMB      38              0.0000000000
      5022        38  POPC      H91            14.7817211984      -24.8261438292        9.4041049749  MEMB      38              0.0000000000
      5023        38  POPC      C210           15.0719060237      -25.2983382610        7.4212953516  MEMB      38              0.0000000000
      5024        38  POPC      H101           14.2562358621      -26.0326832372        7.4949120885  MEMB      38              0.0000000000
      5025        38  POPC      C211           15.8262887203      -25.1082486808        6.1450452385  MEMB      38              0.0000000000
      5026        38  POPC      H11R           15.4703155447      -25.8815358360        5.4311598624  MEMB      38              0.0000000000
      5027        38  POPC      H11S           16.9171604817      -25.1828550032        6.3419043692  MEMB      38              0.0000000000
      5028        38  POPC      C212           15.4528118060      -23.7849975742        5.4921127307  MEMB      38              0.0000000000
      5029        38  POPC      H12R           15.6113394654      -22.9043529640        6.1506377601  MEMB      38              0.0000000000
      5030        38  POPC      H12S           14.3700984706      -23.7222330703        5.2510458614  MEMB      38              0.0000000000
      5031        38  POPC      C213           16.2890387195      -23.3683834119        4.2588693407  MEMB      38              0.0000000000
      5032        38  POPC      H13R           16.1038167100      -24.1755978479        3.5183158316  MEMB      38              0.0000000000
      5033        38  POPC      H13S           17.3759115653      -23.2785811330        4.4709169522  MEMB      38              0.0000000000
      5034        38  POPC      C214           15.8732825984      -22.0539593659        3.6360769228  MEMB      38              0.0000000000
      5035        38  POPC      H14R           16.1528234969      -21.3594771072        4.4569737843  MEMB      38              0.0000000000
      5036        38  POPC      H14S           14.7845192586      -22.0225784794        3.4171455084  MEMB      38              0.0000000000
      5037        38  POPC      C215           16.4969355101      -21.6138670848        2.2352254465  MEMB      38              0.0000000000
      5038        38  POPC      H15R           15.7553979052      -21.0308790426        1.6482255817  MEMB      38              0.0000000000
      5039        38  POPC      H15S           16.6515134073      -22.5897403923        1.7271907414  MEMB      38              0.0000000000
      5040        38  POPC      C216           17.8248125022      -20.8545506232        2.3536129469  MEMB      38              0.0000000000
      5041        38  POPC      H16R           18.4617590927      -21.5327200298        2.9608230215  MEMB      38              0.0000000000
      5042        38  POPC      H16S           17.6072456418      -19.9040818297        2.8861492437  MEMB      38              0.0000000000
      5043        38  POPC      C217           18.4501486979      -20.3558479889        1.0134274605  MEMB      38              0.0000000000
      5044        38  POPC      H17R           19.2565776127      -19.6611686223        1.3318832764  MEMB      38              0.0000000000
      5045        38  POPC      H17S           17.7489846729      -19.7692690753        0.3820663924  MEMB      38              0.0000000000
      5046        38  POPC      C218           19.1033862692      -21.4725138728        0.1132998375  MEMB      38              0.0000000000
      5047        38  POPC      H18R           19.7170958714      -20.8946537771       -0.6104129430  MEMB      38              0.0000000000
      5048        38  POPC      H18S           18.3803103432      -22.2011472065       -0.3116410963  MEMB      38              0.0000000000
      5049        38  POPC      H18T           19.7738536562      -22.1098309727        0.7286214551  MEMB      38              0.0000000000
      5050        38  POPC      C33            16.7045426259      -28.0882488727       10.0113184576  MEMB      38              0.0000000000
      5051        38  POPC      H3X            17.0030933538      -27.0272327455        9.8719146013  MEMB      38              0.0000000000
      5052        38  POPC      H3Y            15.6820931293      -27.9786253180       10.4319136195  MEMB      38              0.0000000000
      5053        38  POPC      C34            16.7259364567      -28.7931189270        8.6343230309  MEMB      38              0.0000000000
      5054        38  POPC      H4X            15.9891681193      -28.3227569840        7.9485733110  MEMB      38              0.0000000000
      5055        38  POPC      H4Y            16.3584103605      -29.8293754802        8.7937515946  MEMB      38              0.0000000000
      5056        38  POPC      C35            18.0891266549      -28.7866835838        7.9238828402  MEMB      38              0.0000000000
      5057        38  POPC      H5X            18.1258437497      -29.2733604811        6.9258260979  MEMB      38              0.0000000000
      5058        38  POPC      H5Y            18.9415572971      -29.1687697344        8.5252926158  MEMB      38              0.0000000000
      5059        38  POPC      C36            18.5769963463      -27.3399926670        7.6389887999  MEMB      38              0.0000000000
      5060        38  POPC      H6X            18.9211776617      -26.6978130526        8.4777177694  MEMB      38              0.0000000000
      5061        38  POPC      H6Y            17.7235436352      -27.0190494905        7.0042170172  MEMB      38              0.0000000000
      5062        38  POPC      C37            19.6432401555      -27.2736044646        6.5707435724  MEMB      38              0.0000000000
      5063        38  POPC      H7X            19.1207463587      -27.7766340731        5.7291482921  MEMB      38              0.0000000000
      5064        38  POPC      H7Y            20.4395020567      -27.9537605506        6.9417913058  MEMB      38              0.0000000000
      5065        38  POPC      C38            20.0757547066      -25.8679688319        6.0415351956  MEMB      38              0.0000000000
      5066        38  POPC      H8X            20.9406942315      -25.6085931447        6.6887793261  MEMB      38              0.0000000000
      5067        38  POPC      H8Y            19.1797364047      -25.2192776836        6.1448409290  MEMB      38              0.0000000000
      5068        38  POPC      C39            20.6066287091      -25.8231161219        4.6117570716  MEMB      38              0.0000000000
      5069        38  POPC      H9X            21.3974291459      -26.5896129472        4.4653382220  MEMB      38              0.0000000000
      5070        38  POPC      H9Y            21.1047878312      -24.8329149586        4.5365221492  MEMB      38              0.0000000000
      5071        38  POPC      C310           19.5209518401      -25.9371137277        3.5412522339  MEMB      38              0.0000000000
      5072        38  POPC      H10X           19.1342001578      -24.9046050877        3.4046142346  MEMB      38              0.0000000000
      5073        38  POPC      H10Y           18.6937152716      -26.5501282154        3.9586414467  MEMB      38              0.0000000000
      5074        38  POPC      C311           20.0300000126      -26.4633303444        2.1807174651  MEMB      38              0.0000000000
      5075        38  POPC      H11X           19.2858132783      -26.5398654172        1.3593471968  MEMB      38              0.0000000000
      5076        38  POPC      H11Y           20.4911182881      -27.4594131522        2.3525017158  MEMB      38              0.0000000000
      5077        38  POPC      C312           21.1326158541      -25.5375857583        1.5069648207  MEMB      38              0.0000000000
      5078        38  POPC      H12X           21.9535537898      -25.4211474220        2.2464420213  MEMB      38              0.0000000000
      5079        38  POPC      H12Y           20.5938828874      -24.5755522753        1.3706591034  MEMB      38              0.0000000000
      5080        38  POPC      C313           21.6937359004      -26.1040612831        0.1800220372  MEMB      38              0.0000000000
      5081        38  POPC      H13X           22.0501766569      -27.1479050781        0.3129188692  MEMB      38              0.0000000000
      5082        38  POPC      H13Y           22.6235832206      -25.6205153332       -0.1886074847  MEMB      38              0.0000000000
      5083        38  POPC      C314           20.7382051323      -26.0141721714       -1.0075902686  MEMB      38              0.0000000000
      5084        38  POPC      H14X           20.5810621112      -24.9673749871       -1.3449960089  MEMB      38              0.0000000000
      5085        38  POPC      H14Y           19.7444185496      -26.3476492654       -0.6394837858  MEMB      38              0.0000000000
      5086        38  POPC      C315           21.1213338243      -26.8340029916       -2.2788298993  MEMB      38              0.0000000000
      5087        38  POPC      H15X           22.2220116095      -26.7296305934       -2.3880820124  MEMB      38              0.0000000000
      5088        38  POPC      H15Y           20.5302451675      -26.4554389305       -3.1400067925  MEMB      38              0.0000000000
      5089        38  POPC      C316           20.8419106436      -28.3611007394       -2.1652655713  MEMB      38              0.0000000000
      5090        38  POPC      H16X           19.8128190165      -28.6677635384       -1.8802224471  MEMB      38              0.0000000000
      5091        38  POPC      H16Y           21.5256054117      -28.8814772030       -1.4609290134  MEMB      38              0.0000000000
      5092        38  POPC      H16Z           20.9823770338      -28.7871924489       -3.1816496700  MEMB      38              0.0000000000
      5093        39  POPC      N             -23.4380031286       12.8776493036       18.9494944350  MEMB      39              0.0000000000
      5094        39  POPC      C12           -24.9280965917       12.6271816649       18.5980653343  MEMB      39              0.0000000000
      5095        39  POPC      H12A          -24.9651603662       11.5783251171       18.3432584981  MEMB      39              0.0000000000
      5096        39  POPC      H12B          -25.1339788431       13.0905700111       17.6445016658  MEMB      39              0.0000000000
      5097        39  POPC      C13           -23.0114716054       12.0136327834       20.1316318466  MEMB      39              0.0000000000
      5098        39  POPC      H13A          -21.9562399246       12.1701564042       20.3001148137  MEMB      39              0.0000000000
      5099        39  POPC      H13B          -23.6013995887       12.3199742897       20.9828311133  MEMB      39              0.0000000000
      5100        39  POPC      H13C          -23.1589640219       11.0148545095       19.7481109644  MEMB      39              0.0000000000
      5101        39  POPC      C14           -22.6831520773       12.4672047718       17.7501130749  MEMB      39              0.0000000000
      5102        39  POPC      H14A          -22.8778734611       13.1292189178       16.9193176945  MEMB      39              0.0000000000
      5103        39  POPC      H14B          -21.6275043294       12.5497102943       17.9627176628  MEMB      39              0.0000000000
      5104        39  POPC      H14C          -22.9227456196       11.4302858481       17.5662819876  MEMB      39              0.0000000000
      5105        39  POPC      C15           -23.2369999290       14.3134140454       19.1474620515  MEMB      39              0.0000000000
      5106        39  POPC      H15A          -23.4667247687       14.8009884974       18.2115680181  MEMB      39              0.0000000000
      5107        39  POPC      H15B          -22.1817047494       14.4503583291       19.3318493574  MEMB      39              0.0000000000
      5108        39  POPC      H15C          -23.8977999657       14.7517499602       19.8806774830  MEMB      39              0.0000000000
      5109        39  POPC      C11           -25.9669712939       12.9506475788       19.6219520153  MEMB      39              0.0000000000
      5110        39  POPC      H11A          -25.7414444756       12.3519864932       20.5302820725  MEMB      39              0.0000000000
      5111        39  POPC      H11B          -26.9602970424       12.5283123584       19.3587827719  MEMB      39              0.0000000000
      5112        39  POPC      P             -26.8499186997       15.3104788202       18.9861497793  MEMB      39              0.0000000000
      5113        39  POPC      O13           -25.7899253301       15.9941687124       18.2173334235  MEMB      39              0.0000000000
      5114        39  POPC      O14           -27.8386838987       16.1273234545       19.7424189594  MEMB      39              0.0000000000
      5115        39  POPC      O12           -26.0848410329       14.2973342228       19.8723493398  MEMB      39              0.0000000000
      5116        39  POPC      O11           -27.6454415176       14.3131905398       17.9830297726  MEMB      39              0.0000000000
      5117        39  POPC      C1            -28.7185240809       14.8927866680       17.2612680611  MEMB      39              0.0000000000
      5118        39  POPC      HA            -28.4260375465       15.9210442600       16.9588469715  MEMB      39              0.0000000000
      5119        39  POPC      HB            -29.5979089420       14.8546674057       17.9391695231  MEMB      39              0.0000000000
      5120        39  POPC      C2            -28.7902149342       14.1296162933       15.8944389076  MEMB      39              0.0000000000
      5121        39  POPC      HS            -29.2186028393       13.1434513731       16.1742306550  MEMB      39              0.0000000000
      5122        39  POPC      O21           -27.5585800495       14.1898020734       15.1989873166  MEMB      39              0.0000000000
      5123        39  POPC      C21           -26.7727329501       13.2078923425       15.1716862309  MEMB      39              0.0000000000
      5124        39  POPC      O22           -26.9686209738       12.0997217560       15.6347981331  MEMB      39              0.0000000000
      5125        39  POPC      C22           -25.5146939594       13.5555109161       14.4013989217  MEMB      39              0.0000000000
      5126        39  POPC      H2R           -25.7509832206       13.5190069684       13.3164309559  MEMB      39              0.0000000000
      5127        39  POPC      H2S           -24.7585381222       12.7601580708       14.5744989432  MEMB      39              0.0000000000
      5128        39  POPC      C3            -30.0282047707       14.6873658825       14.9689605751  MEMB      39              0.0000000000
      5129        39  POPC      HX            -29.6703127577       15.7038523881       14.6987947831  MEMB      39              0.0000000000
      5130        39  POPC      HY            -30.9373197345       14.8776868342       15.5785578159  MEMB      39              0.0000000000
      5131        39  POPC      O31           -30.2554248783       13.7962883214       13.8993580294  MEMB      39              0.0000000000
      5132        39  POPC      C31           -31.2195952347       14.0516685792       12.9984177584  MEMB      39              0.0000000000
      5133        39  POPC      O32           -31.8826658440       15.0711674773       13.0363955320  MEMB      39              0.0000000000
      5134        39  POPC      C32           -31.4659953457       12.8708686512       11.9954429929  MEMB      39              0.0000000000
      5135        39  POPC      H2X           -31.4654712148       13.1551484004       10.9214294209  MEMB      39              0.0000000000
      5136        39  POPC      H2Y           -32.5049062058       12.5348870716       12.2006283265  MEMB      39              0.0000000000
      5137        39  POPC      C23           -24.9493769485       14.8992714299       14.9722923637  MEMB      39              0.0000000000
      5138        39  POPC      H3R           -25.0551533774       14.9816282410       16.0751747134  MEMB      39              0.0000000000
      5139        39  POPC      H3S           -25.6514441291       15.6482302838       14.5474592377  MEMB      39              0.0000000000
      5140        39  POPC      C24           -23.4758000604       15.0904823448       14.6939766380  MEMB      39              0.0000000000
      5141        39  POPC      H4R           -22.9662501967       14.1402191171       14.9617076833  MEMB      39              0.0000000000
      5142        39  POPC      H4S           -23.0008428086       15.7985596636       15.4062710955  MEMB      39              0.0000000000
      5143        39  POPC      C25           -23.0814050251       15.3992263124       13.2668943248  MEMB      39              0.0000000000
      5144        39  POPC      H5R           -23.3315176761       14.4738367357       12.7052731021  MEMB      39              0.0000000000
      5145        39  POPC      H5S           -21.9866270758       15.5842916491       13.3060561248  MEMB      39              0.0000000000
      5146        39  POPC      C26           -23.7759306766       16.5935535196       12.5973594172  MEMB      39              0.0000000000
      5147        39  POPC      H6R           -23.5596483511       17.5529435890       13.1141898260  MEMB      39              0.0000000000
      5148        39  POPC      H6S           -24.8461036724       16.2983525206       12.5536883451  MEMB      39              0.0000000000
      5149        39  POPC      C27           -23.4191443743       16.7053971061       11.0919937589  MEMB      39              0.0000000000
      5150        39  POPC      H7R           -22.6200419763       15.9843131980       10.8166860908  MEMB      39              0.0000000000
      5151        39  POPC      H7S           -22.9176575837       17.6950452757       11.0334396906  MEMB      39              0.0000000000
      5152        39  POPC      C28           -24.7122264589       16.6019264559       10.2203736536  MEMB      39              0.0000000000
      5153        39  POPC      H8R           -25.0810766290       15.5650492654       10.3725459506  MEMB      39              0.0000000000
      5154        39  POPC      H8S           -24.4005948642       16.8139374963        9.1752622822  MEMB      39              0.0000000000
      5155        39  POPC      C29           -25.7268406337       17.6777330073       10.6886718751  MEMB      39              0.0000000000
      5156        39  POPC      H91           -25.3857520992       18.4379963675       11.4067653301  MEMB      39              0.0000000000
      5157        39  POPC      C210          -27.0226421818       17.8435387127       10.3830148871  MEMB      39              0.0000000000
      5158        39  POPC      H101          -27.6148448297       18.6435071577       10.8513595116  MEMB      39              0.0000000000
      5159        39  POPC      C211          -27.8350775106       16.8648331562        9.5434439842  MEMB      39              0.0000000000
      5160        39  POPC      H11R          -28.8699087494       16.7959058710        9.9418082855  MEMB      39              0.0000000000
      5161        39  POPC      H11S          -27.4110816145       15.8382805446        9.5706104142  MEMB      39              0.0000000000
      5162        39  POPC      C212          -28.0116719512       17.1389561632        8.0322944319  MEMB      39              0.0000000000
      5163        39  POPC      H12R          -27.0632495777       17.2275186117        7.4604797101  MEMB      39              0.0000000000
      5164        39  POPC      H12S          -28.6958656958       18.0090282589        7.9365133852  MEMB      39              0.0000000000
      5165        39  POPC      C213          -28.6735115813       15.9783703084        7.3387802566  MEMB      39              0.0000000000
      5166        39  POPC      H13R          -29.6586129247       15.7295526818        7.7882094796  MEMB      39              0.0000000000
      5167        39  POPC      H13S          -28.1212281349       15.0622844019        7.6389321231  MEMB      39              0.0000000000
      5168        39  POPC      C214          -28.6552006761       16.0905205390        5.7640490141  MEMB      39              0.0000000000
      5169        39  POPC      H14R          -27.6231977027       16.1505127988        5.3569961942  MEMB      39              0.0000000000
      5170        39  POPC      H14S          -29.0802641571       17.1064165314        5.6170898132  MEMB      39              0.0000000000
      5171        39  POPC      C215          -29.3415310754       15.0337685923        4.9440524104  MEMB      39              0.0000000000
      5172        39  POPC      H15R          -30.3998917494       14.9391727869        5.2684676864  MEMB      39              0.0000000000
      5173        39  POPC      H15S          -28.7089543664       14.1454979317        5.1565218587  MEMB      39              0.0000000000
      5174        39  POPC      C216          -29.3524621600       15.3372239572        3.4626837539  MEMB      39              0.0000000000
      5175        39  POPC      H16R          -29.7157290931       14.4485487689        2.9035645974  MEMB      39              0.0000000000
      5176        39  POPC      H16S          -28.3288457422       15.5578264646        3.0913826770  MEMB      39              0.0000000000
      5177        39  POPC      C217          -30.2441487445       16.4519734957        2.9960069575  MEMB      39              0.0000000000
      5178        39  POPC      H17R          -29.5822453616       16.9001712712        2.2244346116  MEMB      39              0.0000000000
      5179        39  POPC      H17S          -30.3239418541       17.1836691487        3.8282176557  MEMB      39              0.0000000000
      5180        39  POPC      C218          -31.6221717231       16.2983146830        2.4264876796  MEMB      39              0.0000000000
      5181        39  POPC      H18R          -31.6077355205       15.5669459072        1.5902990196  MEMB      39              0.0000000000
      5182        39  POPC      H18S          -32.0971970716       17.1706815441        1.9288466258  MEMB      39              0.0000000000
      5183        39  POPC      H18T          -32.2476586096       15.8942167491        3.2509830845  MEMB      39              0.0000000000
      5184        39  POPC      C33           -30.5282159619       11.7260476215       12.3590737376  MEMB      39              0.0000000000
      5185        39  POPC      H3X           -30.9082872830       10.9133967463       11.7037374141  MEMB      39              0.0000000000
      5186        39  POPC      H3Y           -30.6289481450       11.4654810919       13.4343778052  MEMB      39              0.0000000000
      5187        39  POPC      C34           -29.1046662672       11.9168200670       11.9183074804  MEMB      39              0.0000000000
      5188        39  POPC      H4X           -28.5025917104       12.5913612920       12.5639245565  MEMB      39              0.0000000000
      5189        39  POPC      H4Y           -29.1124482688       12.4032936734       10.9195062102  MEMB      39              0.0000000000
      5190        39  POPC      C35           -28.3899311980       10.5153998582       12.0233489777  MEMB      39              0.0000000000
      5191        39  POPC      H5X           -28.7153284987       10.0466727066       11.0700738066  MEMB      39              0.0000000000
      5192        39  POPC      H5Y           -28.6366198540        9.9000465431       12.9148679000  MEMB      39              0.0000000000
      5193        39  POPC      C36           -26.8746736297       10.4166512187       12.1437548475  MEMB      39              0.0000000000
      5194        39  POPC      H6X           -26.6514941966        9.3868560549       11.7915702764  MEMB      39              0.0000000000
      5195        39  POPC      H6Y           -26.5763034928       10.4364812572       13.2137562812  MEMB      39              0.0000000000
      5196        39  POPC      C37           -26.0976274236       11.4201379948       11.3404056023  MEMB      39              0.0000000000
      5197        39  POPC      H7X           -26.5965374405       12.3800961476       11.5931714791  MEMB      39              0.0000000000
      5198        39  POPC      H7Y           -26.3955713385       11.2725330402       10.2803287726  MEMB      39              0.0000000000
      5199        39  POPC      C38           -24.5309857716       11.4012896214       11.5717489760  MEMB      39              0.0000000000
      5200        39  POPC      H8X           -24.1398469512       10.3701186257       11.4375215203  MEMB      39              0.0000000000
      5201        39  POPC      H8Y           -24.3496023725       11.7174398444       12.6212587292  MEMB      39              0.0000000000
      5202        39  POPC      C39           -23.8246495835       12.3587067014       10.6627452778  MEMB      39              0.0000000000
      5203        39  POPC      H9X           -22.7307713584       12.4753251327       10.8181530140  MEMB      39              0.0000000000
      5204        39  POPC      H9Y           -24.2660325255       13.3472063397       10.9124868437  MEMB      39              0.0000000000
      5205        39  POPC      C310          -24.0260280069       12.2588289336        9.1001654603  MEMB      39              0.0000000000
      5206        39  POPC      H10X          -25.1124086060       12.2516415629        8.8676866611  MEMB      39              0.0000000000
      5207        39  POPC      H10Y          -23.5840142120       11.2604817868        8.8946240237  MEMB      39              0.0000000000
      5208        39  POPC      C311          -23.2662270909       13.3484036958        8.2954063971  MEMB      39              0.0000000000
      5209        39  POPC      H11X          -22.1949208164       13.2211783818        8.5608068573  MEMB      39              0.0000000000
      5210        39  POPC      H11Y          -23.5773878095       14.3753997368        8.5831196941  MEMB      39              0.0000000000
      5211        39  POPC      C312          -23.4183170547       13.2797806157        6.7515353206  MEMB      39              0.0000000000
      5212        39  POPC      H12X          -23.7418486921       12.2554357886        6.4680472295  MEMB      39              0.0000000000
      5213        39  POPC      H12Y          -22.4315609001       13.5248663750        6.3036893385  MEMB      39              0.0000000000
      5214        39  POPC      C313          -24.5661137549       14.1189992290        6.1509562826  MEMB      39              0.0000000000
      5215        39  POPC      H13X          -24.2580628925       15.1859384289        6.1836136900  MEMB      39              0.0000000000
      5216        39  POPC      H13Y          -25.5586469429       14.0644442157        6.6471641198  MEMB      39              0.0000000000
      5217        39  POPC      C314          -24.8013311534       13.7513284556        4.6811469491  MEMB      39              0.0000000000
      5218        39  POPC      H14X          -25.8890465562       13.9499075922        4.5726912770  MEMB      39              0.0000000000
      5219        39  POPC      H14Y          -24.6237369449       12.6563583739        4.6193247387  MEMB      39              0.0000000000
      5220        39  POPC      C315          -24.0546425533       14.5229629681        3.6174458218  MEMB      39              0.0000000000
      5221        39  POPC      H15X          -23.0908282143       13.9887258402        3.4761173063  MEMB      39              0.0000000000
      5222        39  POPC      H15Y          -23.8189923220       15.5162156272        4.0558966479  MEMB      39              0.0000000000
      5223        39  POPC      C316          -24.6780655329       14.6337710701        2.2300571177  MEMB      39              0.0000000000
      5224        39  POPC      H16X          -25.1126658401       13.6489842662        1.9550318411  MEMB      39              0.0000000000
      5225        39  POPC      H16Y          -23.9454828235       14.9480494899        1.4561892445  MEMB      39              0.0000000000
      5226        39  POPC      H16Z          -25.5628035339       15.3057434949        2.2264703533  MEMB      39              0.0000000000
      5227        40  POPC      N              24.5159737913      -15.1817943817       18.2272623234  MEMB      40              0.0000000000
      5228        40  POPC      C12            25.6127222370      -16.2005332128       18.0427870667  MEMB      40              0.0000000000
      5229        40  POPC      H12A           26.3634493997      -15.7229767823       17.4306196107  MEMB      40              0.0000000000
      5230        40  POPC      H12B           25.1627102961      -16.9252749238       17.3804889645  MEMB      40              0.0000000000
      5231        40  POPC      C13            24.8597055956      -14.1071629360       19.2787387709  MEMB      40              0.0000000000
      5232        40  POPC      H13A           25.7650045508      -13.5726019165       19.0315991762  MEMB      40              0.0000000000
      5233        40  POPC      H13B           24.0491240298      -13.3948755921       19.3235094896  MEMB      40              0.0000000000
      5234        40  POPC      H13C           25.1739085492      -14.5908512731       20.1918225832  MEMB      40              0.0000000000
      5235        40  POPC      C14            24.3224226299      -14.4589890340       16.9232308858  MEMB      40              0.0000000000
      5236        40  POPC      H14A           24.3519269479      -15.1443232492       16.0890567355  MEMB      40              0.0000000000
      5237        40  POPC      H14B           23.4231851327      -13.8611294580       16.9415592966  MEMB      40              0.0000000000
      5238        40  POPC      H14C           25.1120560279      -13.7360804616       16.7808154569  MEMB      40              0.0000000000
      5239        40  POPC      C15            23.2052809762      -15.9287599289       18.5471000077  MEMB      40              0.0000000000
      5240        40  POPC      H15A           23.0753114406      -16.7063652640       17.8089686634  MEMB      40              0.0000000000
      5241        40  POPC      H15B           22.2729379102      -15.3905600471       18.6335701171  MEMB      40              0.0000000000
      5242        40  POPC      H15C           23.4740507541      -16.4361717985       19.4618108667  MEMB      40              0.0000000000
      5243        40  POPC      C11            26.2184444883      -16.9271295383       19.2239365219  MEMB      40              0.0000000000
      5244        40  POPC      H11A           26.6708444348      -16.1660031399       19.8950118076  MEMB      40              0.0000000000
      5245        40  POPC      H11B           26.9566092639      -17.6759169020       18.8651171906  MEMB      40              0.0000000000
      5246        40  POPC      P              24.7776533362      -19.0259324002       19.8114484350  MEMB      40              0.0000000000
      5247        40  POPC      O13            23.3485859176      -19.2783193868       19.9991283017  MEMB      40              0.0000000000
      5248        40  POPC      O14            25.6621798671      -19.8860428373       20.6015983046  MEMB      40              0.0000000000
      5249        40  POPC      O12            25.2438498450      -17.4909774398       20.0830105794  MEMB      40              0.0000000000
      5250        40  POPC      O11            25.0704921968      -19.2526260751       18.2617588033  MEMB      40              0.0000000000
      5251        40  POPC      C1             25.5439186901      -20.5115716415       17.8510193140  MEMB      40              0.0000000000
      5252        40  POPC      HA             24.9757794337      -21.3391666301       18.3270711317  MEMB      40              0.0000000000
      5253        40  POPC      HB             26.5977724380      -20.6924903839       18.1526507675  MEMB      40              0.0000000000
      5254        40  POPC      C2             25.4155262274      -20.6636104887       16.3334173887  MEMB      40              0.0000000000
      5255        40  POPC      HS             25.7502498148      -21.7017124849       16.1221692788  MEMB      40              0.0000000000
      5256        40  POPC      O21            26.1858533745      -19.6679474977       15.6811711111  MEMB      40              0.0000000000
      5257        40  POPC      C21            27.5502062738      -19.7332224501       15.5164450801  MEMB      40              0.0000000000
      5258        40  POPC      O22            28.2787769842      -20.7433500327       15.7171846973  MEMB      40              0.0000000000
      5259        40  POPC      C22            28.0024574733      -18.3753430204       14.8860305892  MEMB      40              0.0000000000
      5260        40  POPC      H2R            28.5260023532      -17.7959084930       15.6762697092  MEMB      40              0.0000000000
      5261        40  POPC      H2S            27.1552973061      -17.7393622056       14.5511141083  MEMB      40              0.0000000000
      5262        40  POPC      C3             23.9499158651      -20.5615752387       15.7649840506  MEMB      40              0.0000000000
      5263        40  POPC      HX             23.4399391648      -19.5924056934       15.9519472889  MEMB      40              0.0000000000
      5264        40  POPC      HY             23.3590083046      -21.3271122917       16.3118865217  MEMB      40              0.0000000000
      5265        40  POPC      O31            23.9368567028      -20.8282030494       14.3852327085  MEMB      40              0.0000000000
      5266        40  POPC      C31            23.7835442515      -19.7733664331       13.5484848318  MEMB      40              0.0000000000
      5267        40  POPC      O32            23.8210811553      -18.5827658582       13.8542161863  MEMB      40              0.0000000000
      5268        40  POPC      C32            23.8051356791      -20.3976362028       12.1956338123  MEMB      40              0.0000000000
      5269        40  POPC      H2X            23.0638051463      -21.2240828942       12.1539694812  MEMB      40              0.0000000000
      5270        40  POPC      H2Y            24.7671075313      -20.9111334885       11.9829094747  MEMB      40              0.0000000000
      5271        40  POPC      C23            29.1029279102      -18.6091392830       13.8824893308  MEMB      40              0.0000000000
      5272        40  POPC      H3R            29.7822299666      -19.4190522335       14.2244116516  MEMB      40              0.0000000000
      5273        40  POPC      H3S            29.7154826499      -17.6989933991       13.7071830065  MEMB      40              0.0000000000
      5274        40  POPC      C24            28.5170321010      -18.8310499022       12.4940840145  MEMB      40              0.0000000000
      5275        40  POPC      H4R            28.0138962878      -17.8563145464       12.3178270313  MEMB      40              0.0000000000
      5276        40  POPC      H4S            27.7606712493      -19.6446815551       12.4785070748  MEMB      40              0.0000000000
      5277        40  POPC      C25            29.6235393777      -18.9247295849       11.4386586878  MEMB      40              0.0000000000
      5278        40  POPC      H5R            30.1903413653      -19.8637837991       11.6153888592  MEMB      40              0.0000000000
      5279        40  POPC      H5S            30.4424122784      -18.1762146272       11.3795520662  MEMB      40              0.0000000000
      5280        40  POPC      C26            28.9673410258      -18.9930137536        9.9667108704  MEMB      40              0.0000000000
      5281        40  POPC      H6R            29.6598873676      -18.5672678901        9.2094520355  MEMB      40              0.0000000000
      5282        40  POPC      H6S            28.1023130381      -18.3047165519       10.0775921382  MEMB      40              0.0000000000
      5283        40  POPC      C27            28.4917937902      -20.3175700275        9.4989618650  MEMB      40              0.0000000000
      5284        40  POPC      H7R            27.5246647621      -20.5747073574        9.9815208480  MEMB      40              0.0000000000
      5285        40  POPC      H7S            29.1981005181      -21.0499365125        9.9451591358  MEMB      40              0.0000000000
      5286        40  POPC      C28            28.2141200305      -20.2600249601        7.9646834916  MEMB      40              0.0000000000
      5287        40  POPC      H8R            27.5178082276      -19.4181569984        7.7628692624  MEMB      40              0.0000000000
      5288        40  POPC      H8S            27.6675552639      -21.1447827293        7.5737986542  MEMB      40              0.0000000000
      5289        40  POPC      C29            29.4735083872      -20.1961438248        7.0786552209  MEMB      40              0.0000000000
      5290        40  POPC      H91            30.2537386957      -20.9495421452        7.2620445801  MEMB      40              0.0000000000
      5291        40  POPC      C210           29.6695602444      -19.3259944113        6.1389851994  MEMB      40              0.0000000000
      5292        40  POPC      H101           30.6730040007      -19.3935807673        5.6934151629  MEMB      40              0.0000000000
      5293        40  POPC      C211           28.8684258843      -18.1532813285        5.4697030118  MEMB      40              0.0000000000
      5294        40  POPC      H11R           29.6344164452      -17.3507396493        5.5289197471  MEMB      40              0.0000000000
      5295        40  POPC      H11S           28.0094127683      -17.8600542989        6.1103559887  MEMB      40              0.0000000000
      5296        40  POPC      C212           28.3983620807      -18.2304653489        4.0164639033  MEMB      40              0.0000000000
      5297        40  POPC      H12R           27.5355526945      -18.9301474976        3.9984178329  MEMB      40              0.0000000000
      5298        40  POPC      H12S           29.1835968914      -18.6759809635        3.3689741310  MEMB      40              0.0000000000
      5299        40  POPC      C213           27.9721316623      -16.8370128491        3.4097859061  MEMB      40              0.0000000000
      5300        40  POPC      H13R           28.8017439804      -16.1381759429        3.6499768978  MEMB      40              0.0000000000
      5301        40  POPC      H13S           27.0481821970      -16.5830228339        3.9720378155  MEMB      40              0.0000000000
      5302        40  POPC      C214           27.6016891882      -16.8667621719        1.9644399730  MEMB      40              0.0000000000
      5303        40  POPC      H14R           26.9894929659      -17.7687879328        1.7502296045  MEMB      40              0.0000000000
      5304        40  POPC      H14S           28.5347677399      -16.7765503151        1.3681632725  MEMB      40              0.0000000000
      5305        40  POPC      C215           26.7053127014      -15.6530246252        1.5517267499  MEMB      40              0.0000000000
      5306        40  POPC      H15R           26.5827883736      -15.6696336531        0.4476272169  MEMB      40              0.0000000000
      5307        40  POPC      H15S           27.2155760209      -14.6722172973        1.6611309499  MEMB      40              0.0000000000
      5308        40  POPC      C216           25.2465514222      -15.5164295778        2.1362567433  MEMB      40              0.0000000000
      5309        40  POPC      H16R           25.3456218439      -15.6053839313        3.2392490867  MEMB      40              0.0000000000
      5310        40  POPC      H16S           24.6182815272      -16.3632531271        1.7862745173  MEMB      40              0.0000000000
      5311        40  POPC      C217           24.4921559592      -14.2194753642        1.6319663151  MEMB      40              0.0000000000
      5312        40  POPC      H17R           23.4075631744      -14.3091169769        1.8554489572  MEMB      40              0.0000000000
      5313        40  POPC      H17S           24.7174832201      -14.0021867259        0.5659760749  MEMB      40              0.0000000000
      5314        40  POPC      C218           24.8544777958      -12.9110017623        2.4325645774  MEMB      40              0.0000000000
      5315        40  POPC      H18R           25.9566466079      -12.7722302145        2.4156103090  MEMB      40              0.0000000000
      5316        40  POPC      H18S           24.5111215171      -13.1173419281        3.4688326553  MEMB      40              0.0000000000
      5317        40  POPC      H18T           24.3155739910      -12.0268823902        2.0297779746  MEMB      40              0.0000000000
      5318        40  POPC      C33            23.5723958961      -19.3345670956       11.1535974204  MEMB      40              0.0000000000
      5319        40  POPC      H3X            22.9222156137      -18.4946227068       11.4792966980  MEMB      40              0.0000000000
      5320        40  POPC      H3Y            23.0516551340      -19.8537276078       10.3207572307  MEMB      40              0.0000000000
      5321        40  POPC      C34            24.8953227365      -18.8524493703       10.5839396165  MEMB      40              0.0000000000
      5322        40  POPC      H4X            25.5664917605      -19.7287046611       10.4573290371  MEMB      40              0.0000000000
      5323        40  POPC      H4Y            25.3511161040      -18.1320015044       11.2963497380  MEMB      40              0.0000000000
      5324        40  POPC      C35            24.7298577429      -18.0549384644        9.3192984609  MEMB      40              0.0000000000
      5325        40  POPC      H5X            25.6812259076      -17.6253298126        8.9389614128  MEMB      40              0.0000000000
      5326        40  POPC      H5Y            23.9401629346      -17.2787254449        9.4098332106  MEMB      40              0.0000000000
      5327        40  POPC      C36            24.3013312242      -18.9086553722        8.1073925224  MEMB      40              0.0000000000
      5328        40  POPC      H6X            23.4583545118      -19.6198858217        8.2410436828  MEMB      40              0.0000000000
      5329        40  POPC      H6Y            25.2318517187      -19.4646902252        7.8639223829  MEMB      40              0.0000000000
      5330        40  POPC      C37            23.9579742895      -18.0528711987        6.8739662567  MEMB      40              0.0000000000
      5331        40  POPC      H7X            24.8697854188      -17.5447414682        6.4935381194  MEMB      40              0.0000000000
      5332        40  POPC      H7Y            23.4349749588      -17.1472616827        7.2490184647  MEMB      40              0.0000000000
      5333        40  POPC      C38            23.1967884016      -18.7687904138        5.7485965309  MEMB      40              0.0000000000
      5334        40  POPC      H8X            22.7929188601      -17.8986970697        5.1881078899  MEMB      40              0.0000000000
      5335        40  POPC      H8Y            22.3381714486      -19.3616678064        6.1301659443  MEMB      40              0.0000000000
      5336        40  POPC      C39            24.0270679251      -19.7055729015        4.8359813031  MEMB      40              0.0000000000
      5337        40  POPC      H9X            24.3983247305      -20.6083170819        5.3665870027  MEMB      40              0.0000000000
      5338        40  POPC      H9Y            24.8938382481      -19.0565106731        4.5874898559  MEMB      40              0.0000000000
      5339        40  POPC      C310           23.1716301086      -19.8941713956        3.5427908358  MEMB      40              0.0000000000
      5340        40  POPC      H10X           22.9567456852      -18.9079708397        3.0785126646  MEMB      40              0.0000000000
      5341        40  POPC      H10Y           22.2376265943      -20.3003974728        3.9865673523  MEMB      40              0.0000000000
      5342        40  POPC      C311           23.6384627459      -20.8911749271        2.4607481901  MEMB      40              0.0000000000
      5343        40  POPC      H11X           22.7355235412      -21.3747572336        2.0304334998  MEMB      40              0.0000000000
      5344        40  POPC      H11Y           24.1524292418      -21.6596720824        3.0768423300  MEMB      40              0.0000000000
      5345        40  POPC      C312           24.6027340630      -20.4527534548        1.3870058298  MEMB      40              0.0000000000
      5346        40  POPC      H12X           24.9253108785      -21.2811196495        0.7206162959  MEMB      40              0.0000000000
      5347        40  POPC      H12Y           25.4875549655      -20.0841895400        1.9487660015  MEMB      40              0.0000000000
      5348        40  POPC      C313           24.2150706192      -19.3024126911        0.4927759610  MEMB      40              0.0000000000
      5349        40  POPC      H13X           23.9914886899      -18.5012990384        1.2293554075  MEMB      40              0.0000000000
      5350        40  POPC      H13Y           23.2727290785      -19.5365935523       -0.0471062773  MEMB      40              0.0000000000
      5351        40  POPC      C314           25.4143086462      -18.8838768506       -0.4343142465  MEMB      40              0.0000000000
      5352        40  POPC      H14X           25.7154258879      -19.7971452225       -0.9907226784  MEMB      40              0.0000000000
      5353        40  POPC      H14Y           26.3357696552      -18.5150639895        0.0648921372  MEMB      40              0.0000000000
      5354        40  POPC      C315           25.0470296938      -17.7839948714       -1.4229895329  MEMB      40              0.0000000000
      5355        40  POPC      H15X           25.9940822704      -17.4915298777       -1.9248620261  MEMB      40              0.0000000000
      5356        40  POPC      H15Y           24.6655858088      -16.9069970240       -0.8575725090  MEMB      40              0.0000000000
      5357        40  POPC      C316           23.9437921504      -18.2136451071       -2.4581732544  MEMB      40              0.0000000000
      5358        40  POPC      H16X           22.8905835594      -18.3624570611       -2.1373494281  MEMB      40              0.0000000000
      5359        40  POPC      H16Y           24.2091631380      -19.1086208824       -3.0605990555  MEMB      40              0.0000000000
      5360        40  POPC      H16Z           23.9041439022      -17.4065594842       -3.2206428503  MEMB      40              0.0000000000
      5361        41  POPC      N             -18.6053994496       27.6360511224       19.4988834402  MEMB      41              0.0000000000
      5362        41  POPC      C12           -18.2097410075       28.5902301153       18.4525411235  MEMB      41              0.0000000000
      5363        41  POPC      H12A          -19.0333222668       29.1786736562       18.0759143240  MEMB      41              0.0000000000
      5364        41  POPC      H12B          -18.1038899142       28.0061775448       17.5502783604  MEMB      41              0.0000000000
      5365        41  POPC      C13           -18.8678162155       28.3732478814       20.7778772872  MEMB      41              0.0000000000
      5366        41  POPC      H13A          -19.6492379766       29.0973488911       20.6005140583  MEMB      41              0.0000000000
      5367        41  POPC      H13B          -19.2926637932       27.7098097207       21.5166292791  MEMB      41              0.0000000000
      5368        41  POPC      H13C          -17.9926723505       28.8603227516       21.1819580694  MEMB      41              0.0000000000
      5369        41  POPC      C14           -19.8377076479       26.9019998820       19.2120461758  MEMB      41              0.0000000000
      5370        41  POPC      H14A          -20.0186771295       26.1820169778       19.9964406948  MEMB      41              0.0000000000
      5371        41  POPC      H14B          -20.7071687296       27.5184431857       19.0375901208  MEMB      41              0.0000000000
      5372        41  POPC      H14C          -19.6723610611       26.3033351247       18.3284959670  MEMB      41              0.0000000000
      5373        41  POPC      C15           -17.4199099501       26.6071137725       19.6902600785  MEMB      41              0.0000000000
      5374        41  POPC      H15A          -17.3797218633       26.0111480163       18.7904769652  MEMB      41              0.0000000000
      5375        41  POPC      H15B          -17.5716733076       25.9410863247       20.5267857809  MEMB      41              0.0000000000
      5376        41  POPC      H15C          -16.5279859184       27.1760797157       19.9073990118  MEMB      41              0.0000000000
      5377        41  POPC      C11           -17.0386410343       29.5683352068       18.6099725751  MEMB      41              0.0000000000
      5378        41  POPC      H11A          -17.1663802338       30.2867891547       19.4477241112  MEMB      41              0.0000000000
      5379        41  POPC      H11B          -17.0434186933       30.1666030432       17.6738242693  MEMB      41              0.0000000000
      5380        41  POPC      P             -14.5663148850       30.0145520711       18.6497642672  MEMB      41              0.0000000000
      5381        41  POPC      O13           -13.2792184841       29.3476907693       18.9600440035  MEMB      41              0.0000000000
      5382        41  POPC      O14           -14.9097621208       31.3911700711       19.1341247459  MEMB      41              0.0000000000
      5383        41  POPC      O12           -15.7574433255       29.0196967769       18.9038555712  MEMB      41              0.0000000000
      5384        41  POPC      O11           -14.7477450024       29.9645440193       17.1106307329  MEMB      41              0.0000000000
      5385        41  POPC      C1            -14.6472304417       28.8428781533       16.2412861861  MEMB      41              0.0000000000
      5386        41  POPC      HA            -15.3633745076       28.0805666962       16.6159056917  MEMB      41              0.0000000000
      5387        41  POPC      HB            -13.6316248724       28.3953350506       16.2919974964  MEMB      41              0.0000000000
      5388        41  POPC      C2            -15.0857688518       29.1081451174       14.8375749585  MEMB      41              0.0000000000
      5389        41  POPC      HS            -14.3144920457       29.6716484268       14.2701973043  MEMB      41              0.0000000000
      5390        41  POPC      O21           -16.3100392037       29.8558942020       14.8149557913  MEMB      41              0.0000000000
      5391        41  POPC      C21           -16.6288148821       30.5655204244       13.7493738219  MEMB      41              0.0000000000
      5392        41  POPC      O22           -15.9630740282       30.7308045636       12.7544048987  MEMB      41              0.0000000000
      5393        41  POPC      C22           -17.8922741224       31.2907865378       14.1065825389  MEMB      41              0.0000000000
      5394        41  POPC      H2R           -17.9537819721       32.2818368392       13.6082279104  MEMB      41              0.0000000000
      5395        41  POPC      H2S           -17.9376421511       31.5864830533       15.1765480944  MEMB      41              0.0000000000
      5396        41  POPC      C3            -15.2539339886       27.8734641987       14.0206776912  MEMB      41              0.0000000000
      5397        41  POPC      HX            -16.2135556122       27.3851399935       14.2945151660  MEMB      41              0.0000000000
      5398        41  POPC      HY            -14.3709040423       27.2759802265       14.3330749306  MEMB      41              0.0000000000
      5399        41  POPC      O31           -15.1614159598       28.1056016686       12.6466409176  MEMB      41              0.0000000000
      5400        41  POPC      C31           -15.8895281386       27.3753755567       11.8718672536  MEMB      41              0.0000000000
      5401        41  POPC      O32           -16.7133274248       26.5776370980       12.2883494491  MEMB      41              0.0000000000
      5402        41  POPC      C32           -15.8518381657       27.8883861162       10.4466671483  MEMB      41              0.0000000000
      5403        41  POPC      H2X           -14.7956441684       27.9358641187       10.1053145520  MEMB      41              0.0000000000
      5404        41  POPC      H2Y           -16.3387437228       28.8856750905       10.3951042730  MEMB      41              0.0000000000
      5405        41  POPC      C23           -19.1342463938       30.5447182607       13.5929078328  MEMB      41              0.0000000000
      5406        41  POPC      H3R           -20.0050998017       31.0051187905       14.1066842427  MEMB      41              0.0000000000
      5407        41  POPC      H3S           -19.1003790940       29.5220192562       14.0256442452  MEMB      41              0.0000000000
      5408        41  POPC      C24           -19.3229853707       30.5017311036       12.0498564033  MEMB      41              0.0000000000
      5409        41  POPC      H4R           -18.6088473318       29.7298283456       11.6913960636  MEMB      41              0.0000000000
      5410        41  POPC      H4S           -19.0683332382       31.4777059810       11.5840812646  MEMB      41              0.0000000000
      5411        41  POPC      C25           -20.7613338071       30.2375221583       11.5976101761  MEMB      41              0.0000000000
      5412        41  POPC      H5R           -21.3422482807       31.0828611838       12.0245305298  MEMB      41              0.0000000000
      5413        41  POPC      H5S           -21.1615613933       29.3423496040       12.1199172981  MEMB      41              0.0000000000
      5414        41  POPC      C26           -20.9585609962       30.1397633753       10.0406262329  MEMB      41              0.0000000000
      5415        41  POPC      H6R           -20.7143894653       31.1641984461        9.6867421699  MEMB      41              0.0000000000
      5416        41  POPC      H6S           -22.0467171576       30.0237866260        9.8488278306  MEMB      41              0.0000000000
      5417        41  POPC      C27           -20.1084343182       28.9874764763        9.4165281491  MEMB      41              0.0000000000
      5418        41  POPC      H7R           -20.6232650751       28.0582374570        9.7417757756  MEMB      41              0.0000000000
      5419        41  POPC      H7S           -19.0481028260       29.0445991482        9.7432621440  MEMB      41              0.0000000000
      5420        41  POPC      C28           -19.9313348483       29.1289246590        7.8436499420  MEMB      41              0.0000000000
      5421        41  POPC      H8R           -20.9827930675       29.3171781532        7.5381724322  MEMB      41              0.0000000000
      5422        41  POPC      H8S           -19.6007872961       28.1067576678        7.5603940425  MEMB      41              0.0000000000
      5423        41  POPC      C29           -18.9820468781       30.2703265696        7.5163666692  MEMB      41              0.0000000000
      5424        41  POPC      H91           -18.8349121597       30.9277812455        8.3859095227  MEMB      41              0.0000000000
      5425        41  POPC      C210          -18.2614660646       30.5439417739        6.3551679974  MEMB      41              0.0000000000
      5426        41  POPC      H101          -17.4405428758       31.2761098857        6.3512934077  MEMB      41              0.0000000000
      5427        41  POPC      C211          -18.2908943439       29.6691492980        5.1579293375  MEMB      41              0.0000000000
      5428        41  POPC      H11R          -18.2861614772       28.6250843133        5.5377017189  MEMB      41              0.0000000000
      5429        41  POPC      H11S          -17.3305823876       29.8359544601        4.6247332547  MEMB      41              0.0000000000
      5430        41  POPC      C212          -19.5132319324       29.6381095044        4.2207802892  MEMB      41              0.0000000000
      5431        41  POPC      H12R          -20.4429836404       29.3863436349        4.7744013456  MEMB      41              0.0000000000
      5432        41  POPC      H12S          -19.2816784934       28.8821171351        3.4402801191  MEMB      41              0.0000000000
      5433        41  POPC      C213          -19.7848688980       31.0014945469        3.4710883948  MEMB      41              0.0000000000
      5434        41  POPC      H13R          -20.0433205107       31.7181613769        4.2797372045  MEMB      41              0.0000000000
      5435        41  POPC      H13S          -20.7588753056       30.9039493144        2.9456201739  MEMB      41              0.0000000000
      5436        41  POPC      C214          -18.6096401813       31.5072582151        2.5105352158  MEMB      41              0.0000000000
      5437        41  POPC      H14R          -17.6691816442       31.5018216495        3.1019990460  MEMB      41              0.0000000000
      5438        41  POPC      H14S          -18.7757135468       32.4909636762        2.0215940950  MEMB      41              0.0000000000
      5439        41  POPC      C215          -18.5385985832       30.5906350023        1.2636115389  MEMB      41              0.0000000000
      5440        41  POPC      H15R          -18.0740777535       29.6579612263        1.6491776534  MEMB      41              0.0000000000
      5441        41  POPC      H15S          -17.7960464855       30.9635677837        0.5261441716  MEMB      41              0.0000000000
      5442        41  POPC      C216          -19.9036155471       30.4306969598        0.6012289567  MEMB      41              0.0000000000
      5443        41  POPC      H16R          -20.2550543237       31.4349268723        0.2813309559  MEMB      41              0.0000000000
      5444        41  POPC      H16S          -20.6732533815       30.0188574484        1.2885187718  MEMB      41              0.0000000000
      5445        41  POPC      C217          -19.8991227434       29.5799945724       -0.6554238406  MEMB      41              0.0000000000
      5446        41  POPC      H17R          -19.0936407897       30.0433657295       -1.2643640284  MEMB      41              0.0000000000
      5447        41  POPC      H17S          -20.9183906366       29.4693776276       -1.0834177109  MEMB      41              0.0000000000
      5448        41  POPC      C218          -19.5955316080       28.0508299533       -0.4047046622  MEMB      41              0.0000000000
      5449        41  POPC      H18R          -20.5591819107       27.5333676397       -0.2099438417  MEMB      41              0.0000000000
      5450        41  POPC      H18S          -18.9005247932       27.7542728130        0.4097526538  MEMB      41              0.0000000000
      5451        41  POPC      H18T          -19.1899407891       27.6200295674       -1.3450393344  MEMB      41              0.0000000000
      5452        41  POPC      C33           -16.6109453128       26.8806865668        9.4848799134  MEMB      41              0.0000000000
      5453        41  POPC      H3X           -17.6639878912       26.7964439914        9.8288650408  MEMB      41              0.0000000000
      5454        41  POPC      H3Y           -16.0449318383       25.9331188411        9.6116292430  MEMB      41              0.0000000000
      5455        41  POPC      C34           -16.4849715184       27.2435645606        8.0251037170  MEMB      41              0.0000000000
      5456        41  POPC      H4X           -15.4053442335       27.3951125674        7.8111894463  MEMB      41              0.0000000000
      5457        41  POPC      H4Y           -16.9784285182       28.1829474382        7.6958904478  MEMB      41              0.0000000000
      5458        41  POPC      C35           -16.9112549221       25.9414792689        7.2612320283  MEMB      41              0.0000000000
      5459        41  POPC      H5X           -18.0080049347       25.9801053886        7.0881186210  MEMB      41              0.0000000000
      5460        41  POPC      H5Y           -16.6480587509       25.0632492692        7.8887350693  MEMB      41              0.0000000000
      5461        41  POPC      C36           -16.2659564458       25.9756633885        5.9414326670  MEMB      41              0.0000000000
      5462        41  POPC      H6X           -15.1728693530       26.1308690780        6.0655003531  MEMB      41              0.0000000000
      5463        41  POPC      H6Y           -16.5789337732       26.8124251248        5.2809812632  MEMB      41              0.0000000000
      5464        41  POPC      C37           -16.2416624419       24.6630575158        5.0778276630  MEMB      41              0.0000000000
      5465        41  POPC      H7X           -17.2623154010       24.3584300709        4.7619309842  MEMB      41              0.0000000000
      5466        41  POPC      H7Y           -15.9266028050       23.9139396399        5.8353764511  MEMB      41              0.0000000000
      5467        41  POPC      C38           -15.3773550371       24.5726540165        3.7785223649  MEMB      41              0.0000000000
      5468        41  POPC      H8X           -15.4820310802       23.5090586403        3.4749938346  MEMB      41              0.0000000000
      5469        41  POPC      H8Y           -14.3299819970       24.8677783463        4.0026478670  MEMB      41              0.0000000000
      5470        41  POPC      C39           -15.8750254388       25.5065789317        2.6104938705  MEMB      41              0.0000000000
      5471        41  POPC      H9X           -15.7437419505       26.5324121739        3.0163896268  MEMB      41              0.0000000000
      5472        41  POPC      H9Y           -16.9699336741       25.3536041601        2.5005136176  MEMB      41              0.0000000000
      5473        41  POPC      C310          -15.1791921119       25.2361440136        1.2908890537  MEMB      41              0.0000000000
      5474        41  POPC      H10X          -15.4285432850       24.1804967666        1.0505702845  MEMB      41              0.0000000000
      5475        41  POPC      H10Y          -14.0881856483       25.4284075465        1.3749170639  MEMB      41              0.0000000000
      5476        41  POPC      C311          -15.7135187157       26.1182756925        0.1461002525  MEMB      41              0.0000000000
      5477        41  POPC      H11X          -16.8211274573       26.0612202387        0.2114348906  MEMB      41              0.0000000000
      5478        41  POPC      H11Y          -15.2671923221       25.6777593730       -0.7709918184  MEMB      41              0.0000000000
      5479        41  POPC      C312          -15.2964063036       27.6623328167        0.1643578402  MEMB      41              0.0000000000
      5480        41  POPC      H12X          -15.2204739082       28.0250674822        1.2117259056  MEMB      41              0.0000000000
      5481        41  POPC      H12Y          -16.1403490825       28.2250009205       -0.2889477147  MEMB      41              0.0000000000
      5482        41  POPC      C313          -14.0173152460       28.0560662264       -0.5347059467  MEMB      41              0.0000000000
      5483        41  POPC      H13X          -13.8886577673       27.4715617118       -1.4707202650  MEMB      41              0.0000000000
      5484        41  POPC      H13Y          -13.0942857986       27.8768869209        0.0570980551  MEMB      41              0.0000000000
      5485        41  POPC      C314          -13.9135870147       29.6094727293       -0.8096803466  MEMB      41              0.0000000000
      5486        41  POPC      H14X          -14.8209646393       29.9685655536       -1.3407543294  MEMB      41              0.0000000000
      5487        41  POPC      H14Y          -12.9689044044       29.6446413219       -1.3933402006  MEMB      41              0.0000000000
      5488        41  POPC      C315          -13.8992813894       30.4501704971        0.3649456483  MEMB      41              0.0000000000
      5489        41  POPC      H15X          -13.0615829512       30.1525669821        1.0312896302  MEMB      41              0.0000000000
      5490        41  POPC      H15Y          -14.8319220177       30.2477852995        0.9337527743  MEMB      41              0.0000000000
      5491        41  POPC      C316          -13.6835231014       31.9938669814        0.0331254111  MEMB      41              0.0000000000
      5492        41  POPC      H16X          -13.4824477339       32.5908915302        0.9482485495  MEMB      41              0.0000000000
      5493        41  POPC      H16Y          -14.6047679177       32.3619299484       -0.4670339373  MEMB      41              0.0000000000
      5494        41  POPC      H16Z          -12.7626487443       32.1469621014       -0.5692633562  MEMB      41              0.0000000000
      5495        42  POPC      N              27.7103080276       -9.5420570978       20.6950480275  MEMB      42              0.0000000000
      5496        42  POPC      C12            27.8812388571      -10.8905469984       20.0679039090  MEMB      42              0.0000000000
      5497        42  POPC      H12A           26.9066420379      -11.3279007413       19.9088978231  MEMB      42              0.0000000000
      5498        42  POPC      H12B           28.4211577951      -11.4784809191       20.7953798001  MEMB      42              0.0000000000
      5499        42  POPC      C13            26.8155204964       -9.6050187307       21.9101312100  MEMB      42              0.0000000000
      5500        42  POPC      H13A           25.8875577339      -10.0478854287       21.5797464270  MEMB      42              0.0000000000
      5501        42  POPC      H13B           27.2314360613      -10.2244565936       22.6909710384  MEMB      42              0.0000000000
      5502        42  POPC      H13C           26.5297448675       -8.6106858444       22.2200254455  MEMB      42              0.0000000000
      5503        42  POPC      C14            29.0178666785       -9.1826061001       21.2730387322  MEMB      42              0.0000000000
      5504        42  POPC      H14A           29.7587849380       -9.1505941150       20.4879174461  MEMB      42              0.0000000000
      5505        42  POPC      H14B           29.0037314493       -8.2443292339       21.8076756509  MEMB      42              0.0000000000
      5506        42  POPC      H14C           29.2418433892       -9.9388078668       22.0108688296  MEMB      42              0.0000000000
      5507        42  POPC      C15            27.3072030540       -8.4654119837       19.7067782855  MEMB      42              0.0000000000
      5508        42  POPC      H15A           26.3576255169       -8.6961210155       19.2469134518  MEMB      42              0.0000000000
      5509        42  POPC      H15B           28.0883412492       -8.4776572622       18.9610751632  MEMB      42              0.0000000000
      5510        42  POPC      H15C           27.2958352218       -7.6066190639       20.3615647105  MEMB      42              0.0000000000
      5511        42  POPC      C11            28.6330420675      -11.0038139224       18.6939418639  MEMB      42              0.0000000000
      5512        42  POPC      H11A           27.8809193062      -10.9231689056       17.8802288653  MEMB      42              0.0000000000
      5513        42  POPC      H11B           29.1195776251      -11.9854870046       18.5097622758  MEMB      42              0.0000000000
      5514        42  POPC      P              30.2811440972       -9.3774439367       17.3587789512  MEMB      42              0.0000000000
      5515        42  POPC      O13            31.6787893611       -8.8743106450       17.5795507199  MEMB      42              0.0000000000
      5516        42  POPC      O14            29.4584930463       -8.4608891492       16.6204016091  MEMB      42              0.0000000000
      5517        42  POPC      O12            29.6249842995       -9.9638884862       18.6340932349  MEMB      42              0.0000000000
      5518        42  POPC      O11            30.3611470284      -10.6367463832       16.4603334534  MEMB      42              0.0000000000
      5519        42  POPC      C1             31.3918300233      -11.6173572653       16.7129568782  MEMB      42              0.0000000000
      5520        42  POPC      HA             30.9624858723      -12.6298646955       16.8704794601  MEMB      42              0.0000000000
      5521        42  POPC      HB             32.0232369366      -11.4254823491       17.6067299402  MEMB      42              0.0000000000
      5522        42  POPC      C2             32.4701584447      -11.6712804616       15.5692181278  MEMB      42              0.0000000000
      5523        42  POPC      HS             33.4405584382      -12.0685842429       15.9363619101  MEMB      42              0.0000000000
      5524        42  POPC      O21            32.7208198399      -10.3052621785       15.0617595010  MEMB      42              0.0000000000
      5525        42  POPC      C21            33.7815191789      -10.1345846143       14.3642199685  MEMB      42              0.0000000000
      5526        42  POPC      O22            34.7431131506      -10.9256691940       14.2702797107  MEMB      42              0.0000000000
      5527        42  POPC      C22            33.7113541225       -8.8268994519       13.6328116077  MEMB      42              0.0000000000
      5528        42  POPC      H2R            34.7160841313       -8.3573013697       13.6985125620  MEMB      42              0.0000000000
      5529        42  POPC      H2S            32.8175707835       -8.2859297273       14.0107327963  MEMB      42              0.0000000000
      5530        42  POPC      C3             31.9734607097      -12.6348134315       14.5036145105  MEMB      42              0.0000000000
      5531        42  POPC      HX             31.9061498032      -13.6734842259       14.8921413449  MEMB      42              0.0000000000
      5532        42  POPC      HY             32.6735286013      -12.8312660470       13.6635951345  MEMB      42              0.0000000000
      5533        42  POPC      O31            30.8730731751      -12.0652421640       13.8778663430  MEMB      42              0.0000000000
      5534        42  POPC      C31            29.7581134372      -12.7155269262       14.1209059266  MEMB      42              0.0000000000
      5535        42  POPC      O32            29.6228097426      -13.7254637039       14.8463433903  MEMB      42              0.0000000000
      5536        42  POPC      C32            28.6064293056      -12.1086113411       13.3778399969  MEMB      42              0.0000000000
      5537        42  POPC      H2X            27.7434908097      -12.6569550795       13.8125553917  MEMB      42              0.0000000000
      5538        42  POPC      H2Y            28.7109543847      -12.2464611717       12.2803917931  MEMB      42              0.0000000000
      5539        42  POPC      C23            33.1995656939       -8.9640507294       12.2047544070  MEMB      42              0.0000000000
      5540        42  POPC      H3R            33.2952002606       -8.0236717507       11.6209201239  MEMB      42              0.0000000000
      5541        42  POPC      H3S            32.0977320828       -9.1042059631       12.1794480179  MEMB      42              0.0000000000
      5542        42  POPC      C24            33.6284934294      -10.1959713060       11.4335442716  MEMB      42              0.0000000000
      5543        42  POPC      H4R            32.9059952797      -10.9573075710       11.7978034913  MEMB      42              0.0000000000
      5544        42  POPC      H4S            34.6592433849      -10.5166296939       11.6963247361  MEMB      42              0.0000000000
      5545        42  POPC      C25            33.4936218946      -10.1091569541        9.9394496471  MEMB      42              0.0000000000
      5546        42  POPC      H5R            34.4157675702       -9.5974376515        9.5900039347  MEMB      42              0.0000000000
      5547        42  POPC      H5S            32.5086096929       -9.6886284717        9.6441059874  MEMB      42              0.0000000000
      5548        42  POPC      C26            33.4757610575      -11.4722418467        9.3176810001  MEMB      42              0.0000000000
      5549        42  POPC      H6R            32.6000500111      -12.0864234736        9.6180670885  MEMB      42              0.0000000000
      5550        42  POPC      H6S            34.3905525387      -12.0400584238        9.5916547389  MEMB      42              0.0000000000
      5551        42  POPC      C27            33.2847787735      -11.3586186904        7.7978279775  MEMB      42              0.0000000000
      5552        42  POPC      H7R            34.2499381922      -10.9725112165        7.4057694897  MEMB      42              0.0000000000
      5553        42  POPC      H7S            32.5118795175      -10.6059768626        7.5323509690  MEMB      42              0.0000000000
      5554        42  POPC      C28            33.1467085659      -12.7332516017        7.0556475995  MEMB      42              0.0000000000
      5555        42  POPC      H8R            32.4119594781      -13.3581139298        7.6070200751  MEMB      42              0.0000000000
      5556        42  POPC      H8S            34.1082460200      -13.2831034435        7.1418426595  MEMB      42              0.0000000000
      5557        42  POPC      C29            32.8046297050      -12.4988247309        5.6073144858  MEMB      42              0.0000000000
      5558        42  POPC      H91            31.7123612486      -12.4855438686        5.4778029842  MEMB      42              0.0000000000
      5559        42  POPC      C210           33.5331637707      -12.2085884114        4.5421115582  MEMB      42              0.0000000000
      5560        42  POPC      H101           33.1226405021      -12.0591107630        3.5325933489  MEMB      42              0.0000000000
      5561        42  POPC      C211           35.0156329216      -12.0467921274        4.4721892437  MEMB      42              0.0000000000
      5562        42  POPC      H11R           35.4635182200      -12.8323776335        3.8267632088  MEMB      42              0.0000000000
      5563        42  POPC      H11S           35.5406803842      -12.1995845957        5.4392989409  MEMB      42              0.0000000000
      5564        42  POPC      C212           35.3002492213      -10.6620887841        3.8544062960  MEMB      42              0.0000000000
      5565        42  POPC      H12R           36.4005191824      -10.6306536013        4.0052019399  MEMB      42              0.0000000000
      5566        42  POPC      H12S           34.8943949518       -9.7678427897        4.3739517611  MEMB      42              0.0000000000
      5567        42  POPC      C213           34.9188086639      -10.5193810970        2.3774465505  MEMB      42              0.0000000000
      5568        42  POPC      H13R           35.1493911262       -9.4860381050        2.0407645850  MEMB      42              0.0000000000
      5569        42  POPC      H13S           33.8323922898      -10.6374866068        2.1772683003  MEMB      42              0.0000000000
      5570        42  POPC      C214           35.5979667169      -11.5039451966        1.3685256417  MEMB      42              0.0000000000
      5571        42  POPC      H14R           35.3146475954      -12.5643223472        1.5407210899  MEMB      42              0.0000000000
      5572        42  POPC      H14S           36.6688898713      -11.5900999116        1.6514067740  MEMB      42              0.0000000000
      5573        42  POPC      C215           35.5733123311      -10.9963446494       -0.0622472678  MEMB      42              0.0000000000
      5574        42  POPC      H15R           36.4093175782      -11.4261074384       -0.6544615258  MEMB      42              0.0000000000
      5575        42  POPC      H15S           35.6796187440       -9.8975385312       -0.1873279814  MEMB      42              0.0000000000
      5576        42  POPC      C216           34.3326429337      -11.4355944562       -0.8336708507  MEMB      42              0.0000000000
      5577        42  POPC      H16R           33.4719360700      -11.2415503528       -0.1585039026  MEMB      42              0.0000000000
      5578        42  POPC      H16S           34.4066737654      -12.5428469590       -0.8868914411  MEMB      42              0.0000000000
      5579        42  POPC      C217           34.1085061904      -10.7534712229       -2.2165639067  MEMB      42              0.0000000000
      5580        42  POPC      H17R           33.1667749320      -11.1441371824       -2.6579738063  MEMB      42              0.0000000000
      5581        42  POPC      H17S           34.8773039575      -11.2012129717       -2.8819930436  MEMB      42              0.0000000000
      5582        42  POPC      C218           34.1265306092       -9.2255829503       -2.2308874167  MEMB      42              0.0000000000
      5583        42  POPC      H18R           33.9653037601       -8.9303553873       -3.2897398495  MEMB      42              0.0000000000
      5584        42  POPC      H18S           35.1046174615       -8.7726286652       -1.9616295602  MEMB      42              0.0000000000
      5585        42  POPC      H18T           33.3064769371       -8.7662027332       -1.6385999127  MEMB      42              0.0000000000
      5586        42  POPC      C33            28.4538330652      -10.5691720288       13.5523192374  MEMB      42              0.0000000000
      5587        42  POPC      H3X            29.2286348691      -10.0929452205       12.9141881907  MEMB      42              0.0000000000
      5588        42  POPC      H3Y            28.7477178525      -10.2629238319       14.5790448145  MEMB      42              0.0000000000
      5589        42  POPC      C34            27.0012460650      -10.0784699465       13.3300162165  MEMB      42              0.0000000000
      5590        42  POPC      H4X            26.9490217760       -8.9737677325       13.4359714437  MEMB      42              0.0000000000
      5591        42  POPC      H4Y            26.3510654924      -10.4806530706       14.1361395882  MEMB      42              0.0000000000
      5592        42  POPC      C35            26.4593816502      -10.4604723070       11.9320300699  MEMB      42              0.0000000000
      5593        42  POPC      H5X            25.4457801318      -10.0084400614       11.9830130028  MEMB      42              0.0000000000
      5594        42  POPC      H5Y            26.2491937219      -11.5496134962       11.8694707805  MEMB      42              0.0000000000
      5595        42  POPC      C36            27.2680468126      -10.0232409252       10.7102834335  MEMB      42              0.0000000000
      5596        42  POPC      H6X            28.2205606548      -10.5924002790       10.6546440744  MEMB      42              0.0000000000
      5597        42  POPC      H6Y            27.5601318295       -8.9712109064       10.9158072520  MEMB      42              0.0000000000
      5598        42  POPC      C37            26.4916956368      -10.1943531014        9.4161880998  MEMB      42              0.0000000000
      5599        42  POPC      H7X            25.5661593616       -9.5799443782        9.4018300858  MEMB      42              0.0000000000
      5600        42  POPC      H7Y            26.2012922621      -11.2662009845        9.4497909159  MEMB      42              0.0000000000
      5601        42  POPC      C38            27.2544818522       -9.9598134618        8.0935447814  MEMB      42              0.0000000000
      5602        42  POPC      H8X            28.1769263363      -10.5738134392        8.1736760283  MEMB      42              0.0000000000
      5603        42  POPC      H8Y            27.5994207846       -8.9038975251        8.1130284749  MEMB      42              0.0000000000
      5604        42  POPC      C39            26.2412796717      -10.1308216661        6.9000538466  MEMB      42              0.0000000000
      5605        42  POPC      H9X            25.2699655850       -9.7099059662        7.2372492758  MEMB      42              0.0000000000
      5606        42  POPC      H9Y            26.1101069249      -11.1911468206        6.5953816422  MEMB      42              0.0000000000
      5607        42  POPC      C310           26.6643458788       -9.3930231777        5.6271795949  MEMB      42              0.0000000000
      5608        42  POPC      H10X           26.6835556252       -8.3071514037        5.8613474579  MEMB      42              0.0000000000
      5609        42  POPC      H10Y           25.8580323189       -9.5511859094        4.8794063041  MEMB      42              0.0000000000
      5610        42  POPC      C311           28.0047449592       -9.6869062512        5.0096199448  MEMB      42              0.0000000000
      5611        42  POPC      H11X           28.8315164461       -9.5956028980        5.7461202273  MEMB      42              0.0000000000
      5612        42  POPC      H11Y           28.2512499641       -8.9633782703        4.2033541889  MEMB      42              0.0000000000
      5613        42  POPC      C312           28.0872898133      -11.1679795637        4.4518486434  MEMB      42              0.0000000000
      5614        42  POPC      H12X           27.4835188215      -11.3804084939        3.5437434594  MEMB      42              0.0000000000
      5615        42  POPC      H12Y           27.9702215823      -11.9321962058        5.2497142975  MEMB      42              0.0000000000
      5616        42  POPC      C313           29.5255747620      -11.5233611907        4.0065459598  MEMB      42              0.0000000000
      5617        42  POPC      H13X           29.5305662865      -12.5327928719        3.5424945934  MEMB      42              0.0000000000
      5618        42  POPC      H13Y           30.0974531326      -11.5751547592        4.9576471495  MEMB      42              0.0000000000
      5619        42  POPC      C314           30.2979859723      -10.5240672249        3.2221729277  MEMB      42              0.0000000000
      5620        42  POPC      H14X           31.3318532817      -10.8962206652        3.0580356342  MEMB      42              0.0000000000
      5621        42  POPC      H14Y           30.4373757685       -9.5315574253        3.7015637173  MEMB      42              0.0000000000
      5622        42  POPC      C315           29.6331433406      -10.2097989605        1.9477174588  MEMB      42              0.0000000000
      5623        42  POPC      H15X           28.8160798189       -9.4883338481        2.1626976193  MEMB      42              0.0000000000
      5624        42  POPC      H15Y           29.1853184664      -11.1782543208        1.6380925999  MEMB      42              0.0000000000
      5625        42  POPC      C316           30.5490949904       -9.5933376306        0.8873266288  MEMB      42              0.0000000000
      5626        42  POPC      H16X           30.9901568367       -8.5891230252        1.0643530967  MEMB      42              0.0000000000
      5627        42  POPC      H16Y           29.9899125425       -9.5433966138       -0.0713925286  MEMB      42              0.0000000000
      5628        42  POPC      H16Z           31.3548541273      -10.3019817654        0.5994082492  MEMB      42              0.0000000000
      5629        43  POPC      N             -30.9985520689        7.9866981906       18.5266340982  MEMB      43              0.0000000000
      5630        43  POPC      C12           -29.5645443026        8.0230262325       19.1183564757  MEMB      43              0.0000000000
      5631        43  POPC      H12A          -29.6840781852        8.4259331251       20.1132321771  MEMB      43              0.0000000000
      5632        43  POPC      H12B          -28.9823747780        8.7039580890       18.5151897074  MEMB      43              0.0000000000
      5633        43  POPC      C13           -31.8481408327        6.8173536268       18.9584171538  MEMB      43              0.0000000000
      5634        43  POPC      H13A          -32.1644405081        6.8311135554       19.9909699091  MEMB      43              0.0000000000
      5635        43  POPC      H13B          -32.6605054024        6.7348779852       18.2515496571  MEMB      43              0.0000000000
      5636        43  POPC      H13C          -31.3013304974        5.9246432134       18.6929620411  MEMB      43              0.0000000000
      5637        43  POPC      C14           -31.6166649626        9.3666750559       18.8471615752  MEMB      43              0.0000000000
      5638        43  POPC      H14A          -32.5087749603        9.4518532553       18.2444307185  MEMB      43              0.0000000000
      5639        43  POPC      H14B          -31.8752109734        9.3369342559       19.8953358108  MEMB      43              0.0000000000
      5640        43  POPC      H14C          -30.9445875989       10.1898065841       18.6543738628  MEMB      43              0.0000000000
      5641        43  POPC      C15           -30.9254273330        7.9253107634       17.0382394663  MEMB      43              0.0000000000
      5642        43  POPC      H15A          -30.1795466646        8.6024575042       16.6489654516  MEMB      43              0.0000000000
      5643        43  POPC      H15B          -31.8719565968        8.0775887943       16.5409528494  MEMB      43              0.0000000000
      5644        43  POPC      H15C          -30.5740826891        6.9548015111       16.7203263662  MEMB      43              0.0000000000
      5645        43  POPC      C11           -28.6806457552        6.6384076505       19.0287014990  MEMB      43              0.0000000000
      5646        43  POPC      H11A          -27.7037686378        6.8215991540       19.5251618925  MEMB      43              0.0000000000
      5647        43  POPC      H11B          -28.4681203228        6.4582485209       17.9532032292  MEMB      43              0.0000000000
      5648        43  POPC      P             -28.6248082363        4.0792990949       19.5760576465  MEMB      43              0.0000000000
      5649        43  POPC      O13           -29.5815836166        3.0692413534       20.1313941499  MEMB      43              0.0000000000
      5650        43  POPC      O14           -27.2363870781        4.1535941025       20.0788111232  MEMB      43              0.0000000000
      5651        43  POPC      O12           -29.2849527436        5.5245346051       19.6920463627  MEMB      43              0.0000000000
      5652        43  POPC      O11           -28.5999357663        3.9505970836       18.0041804494  MEMB      43              0.0000000000
      5653        43  POPC      C1            -29.6604423842        3.3622420534       17.2971639898  MEMB      43              0.0000000000
      5654        43  POPC      HA            -30.6198735166        3.9095427974       17.4166411779  MEMB      43              0.0000000000
      5655        43  POPC      HB            -29.8131651328        2.3814093333       17.7961270315  MEMB      43              0.0000000000
      5656        43  POPC      C2            -29.2897212901        3.0951272018       15.8148029587  MEMB      43              0.0000000000
      5657        43  POPC      HS            -28.9571003301        2.0497474090       15.6391173688  MEMB      43              0.0000000000
      5658        43  POPC      O21           -28.3186834565        3.9981914138       15.2948221577  MEMB      43              0.0000000000
      5659        43  POPC      C21           -27.1227287271        3.6855901076       15.5563293567  MEMB      43              0.0000000000
      5660        43  POPC      O22           -26.6145800214        2.7600477299       16.2130563978  MEMB      43              0.0000000000
      5661        43  POPC      C22           -26.2970851396        4.7635464486       14.7905954004  MEMB      43              0.0000000000
      5662        43  POPC      H2R           -25.2009651967        4.6528223142       14.9340587339  MEMB      43              0.0000000000
      5663        43  POPC      H2S           -26.5779889088        5.7040055012       15.3111246407  MEMB      43              0.0000000000
      5664        43  POPC      C3            -30.5321659510        3.3085251232       14.8898066293  MEMB      43              0.0000000000
      5665        43  POPC      HX            -30.9922594260        4.3022000258       15.0775439964  MEMB      43              0.0000000000
      5666        43  POPC      HY            -31.3408674318        2.6320804627       15.2401569650  MEMB      43              0.0000000000
      5667        43  POPC      O31           -30.2704218022        3.1673399353       13.5259725614  MEMB      43              0.0000000000
      5668        43  POPC      C31           -30.8225376425        2.3169421855       12.7142192309  MEMB      43              0.0000000000
      5669        43  POPC      O32           -31.8042078343        1.6012624045       13.0292923626  MEMB      43              0.0000000000
      5670        43  POPC      C32           -30.0320705685        2.3839066588       11.4151768146  MEMB      43              0.0000000000
      5671        43  POPC      H2X           -30.1775286881        1.4734777069       10.7952721719  MEMB      43              0.0000000000
      5672        43  POPC      H2Y           -28.9265361377        2.4343705807       11.5129929244  MEMB      43              0.0000000000
      5673        43  POPC      C23           -26.6308916116        4.8294359397       13.2489051143  MEMB      43              0.0000000000
      5674        43  POPC      H3R           -27.7103233295        5.0334493333       13.0829929096  MEMB      43              0.0000000000
      5675        43  POPC      H3S           -26.5502576882        3.7905752506       12.8634343652  MEMB      43              0.0000000000
      5676        43  POPC      C24           -25.6446408143        5.5675580969       12.3021080687  MEMB      43              0.0000000000
      5677        43  POPC      H4R           -24.5789063490        5.4019170768       12.5687425940  MEMB      43              0.0000000000
      5678        43  POPC      H4S           -25.9026368139        6.6359234920       12.4644485277  MEMB      43              0.0000000000
      5679        43  POPC      C25           -25.7408738196        5.2719997951       10.7874792580  MEMB      43              0.0000000000
      5680        43  POPC      H5R           -25.5185455524        4.1841561663       10.7489110660  MEMB      43              0.0000000000
      5681        43  POPC      H5S           -24.9302139018        5.8448372538       10.2884707979  MEMB      43              0.0000000000
      5682        43  POPC      C26           -27.0081581592        5.7028353162       10.1159821694  MEMB      43              0.0000000000
      5683        43  POPC      H6R           -27.8436713892        5.4954015359       10.8182705348  MEMB      43              0.0000000000
      5684        43  POPC      H6S           -27.1673289975        5.3109106948        9.0886645713  MEMB      43              0.0000000000
      5685        43  POPC      C27           -27.0869019187        7.2834885021        9.9171823974  MEMB      43              0.0000000000
      5686        43  POPC      H7R           -26.2133922568        7.5484662725        9.2838665746  MEMB      43              0.0000000000
      5687        43  POPC      H7S           -27.0658440491        7.7861204559       10.9077573294  MEMB      43              0.0000000000
      5688        43  POPC      C28           -28.3763449464        7.8410312814        9.1195365162  MEMB      43              0.0000000000
      5689        43  POPC      H8R           -29.1843911407        7.7993454843        9.8808811281  MEMB      43              0.0000000000
      5690        43  POPC      H8S           -28.5916615750        7.1514646392        8.2754652855  MEMB      43              0.0000000000
      5691        43  POPC      C29           -28.3752434622        9.2392636873        8.7218478499  MEMB      43              0.0000000000
      5692        43  POPC      H91           -28.3142288833        9.8806413903        9.6134252879  MEMB      43              0.0000000000
      5693        43  POPC      C210          -28.5288514538        9.7329328417        7.4830304826  MEMB      43              0.0000000000
      5694        43  POPC      H101          -28.7473691810       10.8109772849        7.4746235924  MEMB      43              0.0000000000
      5695        43  POPC      C211          -28.7407007506        9.0312258068        6.2088629038  MEMB      43              0.0000000000
      5696        43  POPC      H11R          -29.7509339095        9.3750470692        5.8997726820  MEMB      43              0.0000000000
      5697        43  POPC      H11S          -28.7137899452        7.9218064012        6.2616360536  MEMB      43              0.0000000000
      5698        43  POPC      C212          -27.7531309553        9.3249118614        5.0612302160  MEMB      43              0.0000000000
      5699        43  POPC      H12R          -27.8043387375       10.3790329313        4.7140585658  MEMB      43              0.0000000000
      5700        43  POPC      H12S          -28.1791820644        8.8144327978        4.1711663238  MEMB      43              0.0000000000
      5701        43  POPC      C213          -26.2779537364        8.8495523754        5.3482356645  MEMB      43              0.0000000000
      5702        43  POPC      H13R          -25.8091959850        9.5231389288        6.0971464429  MEMB      43              0.0000000000
      5703        43  POPC      H13S          -25.7437069812        8.9424756838        4.3785615241  MEMB      43              0.0000000000
      5704        43  POPC      C214          -26.0228759406        7.3350035836        5.6599662486  MEMB      43              0.0000000000
      5705        43  POPC      H14R          -26.3015529443        7.1365939376        6.7169866277  MEMB      43              0.0000000000
      5706        43  POPC      H14S          -24.9506064961        7.0713473399        5.5373102042  MEMB      43              0.0000000000
      5707        43  POPC      C215          -26.8969254495        6.4018326380        4.8112055873  MEMB      43              0.0000000000
      5708        43  POPC      H15R          -27.9996536859        6.5347785442        4.8364427546  MEMB      43              0.0000000000
      5709        43  POPC      H15S          -26.7155586248        5.3720616757        5.1867041781  MEMB      43              0.0000000000
      5710        43  POPC      C216          -26.4838769228        6.3885473324        3.3744108356  MEMB      43              0.0000000000
      5711        43  POPC      H16R          -25.4368319348        6.0204229807        3.3243930599  MEMB      43              0.0000000000
      5712        43  POPC      H16S          -26.4398941107        7.3424922789        2.8066285853  MEMB      43              0.0000000000
      5713        43  POPC      C217          -27.3194148682        5.3710217685        2.5436394735  MEMB      43              0.0000000000
      5714        43  POPC      H17R          -27.7007362397        4.5760303802        3.2195857252  MEMB      43              0.0000000000
      5715        43  POPC      H17S          -26.6184049815        4.9403103159        1.7970514904  MEMB      43              0.0000000000
      5716        43  POPC      C218          -28.3439996125        5.9846241083        1.6176125407  MEMB      43              0.0000000000
      5717        43  POPC      H18R          -27.7481850222        6.6870211641        0.9963513159  MEMB      43              0.0000000000
      5718        43  POPC      H18S          -29.2271022884        6.5087053480        2.0416268822  MEMB      43              0.0000000000
      5719        43  POPC      H18T          -28.5570906491        5.2095187880        0.8507181724  MEMB      43              0.0000000000
      5720        43  POPC      C33           -30.7763833814        3.5150803053       10.6946441462  MEMB      43              0.0000000000
      5721        43  POPC      H3X           -30.7068787563        4.5028996960       11.1983342970  MEMB      43              0.0000000000
      5722        43  POPC      H3Y           -31.8677885003        3.3081409158       10.6764299805  MEMB      43              0.0000000000
      5723        43  POPC      C34           -30.2192390152        3.9036655641        9.2876663594  MEMB      43              0.0000000000
      5724        43  POPC      H4X           -30.4143181856        2.9818513730        8.6990039955  MEMB      43              0.0000000000
      5725        43  POPC      H4Y           -29.1118853895        3.9906758563        9.2649057142  MEMB      43              0.0000000000
      5726        43  POPC      C35           -30.9041240450        5.1342079943        8.5786272079  MEMB      43              0.0000000000
      5727        43  POPC      H5X           -30.6056964337        6.0809354938        9.0775950232  MEMB      43              0.0000000000
      5728        43  POPC      H5Y           -31.9986766065        4.9442892675        8.5642558126  MEMB      43              0.0000000000
      5729        43  POPC      C36           -30.3270313144        5.1894793280        7.1627611428  MEMB      43              0.0000000000
      5730        43  POPC      H6X           -30.3562685517        4.2391256059        6.5880482986  MEMB      43              0.0000000000
      5731        43  POPC      H6Y           -29.2394818250        5.2981599103        7.3621241926  MEMB      43              0.0000000000
      5732        43  POPC      C37           -30.9239711518        6.1032615865        6.0985609410  MEMB      43              0.0000000000
      5733        43  POPC      H7X           -30.0979825452        6.3315386372        5.3914872149  MEMB      43              0.0000000000
      5734        43  POPC      H7Y           -31.3720528751        7.0175439974        6.5431178016  MEMB      43              0.0000000000
      5735        43  POPC      C38           -32.0248569298        5.4455643516        5.2501048813  MEMB      43              0.0000000000
      5736        43  POPC      H8X           -32.8462367288        5.1435379909        5.9345289148  MEMB      43              0.0000000000
      5737        43  POPC      H8Y           -31.7551329464        4.4897351520        4.7521481464  MEMB      43              0.0000000000
      5738        43  POPC      C39           -32.6800131095        6.4471766316        4.3459324774  MEMB      43              0.0000000000
      5739        43  POPC      H9X           -31.8451125373        7.0646569743        3.9509891187  MEMB      43              0.0000000000
      5740        43  POPC      H9Y           -33.2736522188        7.1722443627        4.9427498670  MEMB      43              0.0000000000
      5741        43  POPC      C310          -33.5519416018        5.8509387769        3.1964410912  MEMB      43              0.0000000000
      5742        43  POPC      H10X          -34.3550943410        6.5975988990        3.0182118568  MEMB      43              0.0000000000
      5743        43  POPC      H10Y          -34.0634348379        4.9518571314        3.6018394032  MEMB      43              0.0000000000
      5744        43  POPC      C311          -32.7962851828        5.5771062006        1.8796681521  MEMB      43              0.0000000000
      5745        43  POPC      H11X          -32.1775615041        6.4326413758        1.5338906212  MEMB      43              0.0000000000
      5746        43  POPC      H11Y          -33.6065707912        5.4579409431        1.1289627187  MEMB      43              0.0000000000
      5747        43  POPC      C312          -31.8817157696        4.3415623366        2.0167227309  MEMB      43              0.0000000000
      5748        43  POPC      H12X          -32.3523417651        3.4663110407        2.5134789607  MEMB      43              0.0000000000
      5749        43  POPC      H12Y          -30.9692404635        4.6136021950        2.5891760617  MEMB      43              0.0000000000
      5750        43  POPC      C313          -31.4952971153        3.7652979817        0.6196765666  MEMB      43              0.0000000000
      5751        43  POPC      H13X          -30.8758746787        4.4140037116       -0.0359270301  MEMB      43              0.0000000000
      5752        43  POPC      H13Y          -32.4452253519        3.5625013743        0.0803898563  MEMB      43              0.0000000000
      5753        43  POPC      C314          -30.5950171179        2.5351878698        0.6776376013  MEMB      43              0.0000000000
      5754        43  POPC      H14X          -29.5680877672        2.7849039025        1.0202440173  MEMB      43              0.0000000000
      5755        43  POPC      H14Y          -30.5202960253        2.1056887356       -0.3442578825  MEMB      43              0.0000000000
      5756        43  POPC      C315          -31.2011078924        1.4258666180        1.6485155318  MEMB      43              0.0000000000
      5757        43  POPC      H15X          -32.3061009693        1.5139612252        1.5740128285  MEMB      43              0.0000000000
      5758        43  POPC      H15Y          -30.9356616718        1.6597630238        2.7016788262  MEMB      43              0.0000000000
      5759        43  POPC      C316          -30.7384812027       -0.0138437773        1.3606246017  MEMB      43              0.0000000000
      5760        43  POPC      H16X          -31.2774404097       -0.7686526661        1.9722671783  MEMB      43              0.0000000000
      5761        43  POPC      H16Y          -29.6649569369       -0.0804381721        1.6388891298  MEMB      43              0.0000000000
      5762        43  POPC      H16Z          -30.9948290648       -0.3444608371        0.3314025291  MEMB      43              0.0000000000
      5763        44  POPC      N              25.3191780081       27.6376313937       18.3033188852  MEMB      44              0.0000000000
      5764        44  POPC      C12            24.2219972023       28.6312684585       17.8271365892  MEMB      44              0.0000000000
      5765        44  POPC      H12A           23.3516555726       28.3090246978       18.3794630477  MEMB      44              0.0000000000
      5766        44  POPC      H12B           24.1771745161       28.5548318209       16.7507776887  MEMB      44              0.0000000000
      5767        44  POPC      C13            25.5902213822       27.5323202120       19.7761207818  MEMB      44              0.0000000000
      5768        44  POPC      H13A           26.3579253459       26.7785999599       19.8706542045  MEMB      44              0.0000000000
      5769        44  POPC      H13B           25.9915434025       28.5059418943       20.0157070273  MEMB      44              0.0000000000
      5770        44  POPC      H13C           24.6337147713       27.3769042781       20.2529236530  MEMB      44              0.0000000000
      5771        44  POPC      C14            25.0361455678       26.2444390984       17.7406182554  MEMB      44              0.0000000000
      5772        44  POPC      H14A           25.2710497864       26.2098561511       16.6870414461  MEMB      44              0.0000000000
      5773        44  POPC      H14B           25.6664989506       25.4651895583       18.1428924005  MEMB      44              0.0000000000
      5774        44  POPC      H14C           24.0386486789       25.9179706452       17.9952130242  MEMB      44              0.0000000000
      5775        44  POPC      C15            26.5901519293       28.1198984777       17.7634694185  MEMB      44              0.0000000000
      5776        44  POPC      H15A           27.0152396647       29.0198763925       18.1826830088  MEMB      44              0.0000000000
      5777        44  POPC      H15B           26.4214016234       28.1423642743       16.6969710374  MEMB      44              0.0000000000
      5778        44  POPC      H15C           27.3012963171       27.3554966780       18.0398095110  MEMB      44              0.0000000000
      5779        44  POPC      C11            24.4543105916       30.1298279687       18.0723563432  MEMB      44              0.0000000000
      5780        44  POPC      H11A           23.5034888115       30.6291871297       17.7879282841  MEMB      44              0.0000000000
      5781        44  POPC      H11B           25.2099217397       30.4784398312       17.3362567931  MEMB      44              0.0000000000
      5782        44  POPC      P              25.4389897027       31.5024414957       19.9677993678  MEMB      44              0.0000000000
      5783        44  POPC      O13            26.2865336140       31.2318214081       21.1178090644  MEMB      44              0.0000000000
      5784        44  POPC      O14            24.4580082858       32.5924251773       20.2007824010  MEMB      44              0.0000000000
      5785        44  POPC      O12            24.8077520650       30.1830230861       19.4393681853  MEMB      44              0.0000000000
      5786        44  POPC      O11            26.2829511592       32.1257032110       18.7912206717  MEMB      44              0.0000000000
      5787        44  POPC      C1             27.2810197844       33.0870925343       18.9516730319  MEMB      44              0.0000000000
      5788        44  POPC      HA             27.8937068937       32.8398981631       19.8448864353  MEMB      44              0.0000000000
      5789        44  POPC      HB             26.7766445884       34.0670966011       19.0913817453  MEMB      44              0.0000000000
      5790        44  POPC      C2             28.0331186223       33.2174357284       17.5958371634  MEMB      44              0.0000000000
      5791        44  POPC      HS             28.4644859191       34.2383828710       17.5189563558  MEMB      44              0.0000000000
      5792        44  POPC      O21            27.0378809982       33.1047051288       16.5142652519  MEMB      44              0.0000000000
      5793        44  POPC      C21            26.1647894928       34.1022099106       16.3771306226  MEMB      44              0.0000000000
      5794        44  POPC      O22            26.1747362801       35.1786133537       16.9859878316  MEMB      44              0.0000000000
      5795        44  POPC      C22            25.1823872191       33.5745265917       15.2974297495  MEMB      44              0.0000000000
      5796        44  POPC      H2R            24.5357728248       34.3682162417       14.8658424315  MEMB      44              0.0000000000
      5797        44  POPC      H2S            24.4113491006       32.8739000044       15.6833622697  MEMB      44              0.0000000000
      5798        44  POPC      C3             29.1066913041       32.0395727259       17.4090476799  MEMB      44              0.0000000000
      5799        44  POPC      HX             28.4994056539       31.1623646652       17.7189368102  MEMB      44              0.0000000000
      5800        44  POPC      HY             29.9637878429       32.2056375037       18.0961640775  MEMB      44              0.0000000000
      5801        44  POPC      O31            29.5082974858       31.7633609489       16.0875127234  MEMB      44              0.0000000000
      5802        44  POPC      C31            30.3732778581       30.7549624241       15.9235022480  MEMB      44              0.0000000000
      5803        44  POPC      O32            30.8646667945       30.0981328644       16.8359420390  MEMB      44              0.0000000000
      5804        44  POPC      C32            30.5440380482       30.4979181971       14.3892439093  MEMB      44              0.0000000000
      5805        44  POPC      H2X            30.9653971849       29.4793704571       14.2501838675  MEMB      44              0.0000000000
      5806        44  POPC      H2Y            31.2877846556       31.2259451317       14.0004791415  MEMB      44              0.0000000000
      5807        44  POPC      C23            25.8498164375       32.5960910914       14.2541416805  MEMB      44              0.0000000000
      5808        44  POPC      H3R            26.0200637611       31.6742031726       14.8503457352  MEMB      44              0.0000000000
      5809        44  POPC      H3S            26.8017366431       33.0523365982       13.9077182091  MEMB      44              0.0000000000
      5810        44  POPC      C24            24.9023327578       32.3643840199       13.0840092765  MEMB      44              0.0000000000
      5811        44  POPC      H4R            23.8946379137       31.9742690165       13.3422389828  MEMB      44              0.0000000000
      5812        44  POPC      H4S            25.3796951752       31.4586006468       12.6527292813  MEMB      44              0.0000000000
      5813        44  POPC      C25            24.8090105743       33.4097683631       11.9208384048  MEMB      44              0.0000000000
      5814        44  POPC      H5R            24.2902136524       34.3076749832       12.3195041283  MEMB      44              0.0000000000
      5815        44  POPC      H5S            24.1395885777       32.9825284494       11.1438822359  MEMB      44              0.0000000000
      5816        44  POPC      C26            26.1383890961       33.8178880509       11.4112626734  MEMB      44              0.0000000000
      5817        44  POPC      H6R            26.8628071275       33.0043223160       11.1929729490  MEMB      44              0.0000000000
      5818        44  POPC      H6S            26.6678928165       34.3850703684       12.2064052040  MEMB      44              0.0000000000
      5819        44  POPC      C27            25.9464280949       34.7840330714       10.1743398792  MEMB      44              0.0000000000
      5820        44  POPC      H7R            26.9056096075       35.2896305535        9.9321365882  MEMB      44              0.0000000000
      5821        44  POPC      H7S            25.1772075314       35.4978217091       10.5392059937  MEMB      44              0.0000000000
      5822        44  POPC      C28            25.3931307036       34.0803484795        8.9429248793  MEMB      44              0.0000000000
      5823        44  POPC      H8R            25.0764625038       34.8833313666        8.2434542741  MEMB      44              0.0000000000
      5824        44  POPC      H8S            24.4354891045       33.6276440796        9.2780413479  MEMB      44              0.0000000000
      5825        44  POPC      C29            26.2784276221       33.1235710076        8.1924946280  MEMB      44              0.0000000000
      5826        44  POPC      H91            27.3299344961       33.3967527007        8.0201440887  MEMB      44              0.0000000000
      5827        44  POPC      C210           25.8381421458       31.8653530388        7.8376150249  MEMB      44              0.0000000000
      5828        44  POPC      H101           26.5877334419       31.1133931574        7.5500919448  MEMB      44              0.0000000000
      5829        44  POPC      C211           24.4797126657       31.1800138026        8.0374987631  MEMB      44              0.0000000000
      5830        44  POPC      H11R           24.1007849530       31.3406400972        9.0694553172  MEMB      44              0.0000000000
      5831        44  POPC      H11S           24.4698789876       30.0718072316        7.9593799235  MEMB      44              0.0000000000
      5832        44  POPC      C212           23.4182212025       31.6103776378        7.0183975899  MEMB      44              0.0000000000
      5833        44  POPC      H12R           23.2298406131       32.7034133715        7.0824817448  MEMB      44              0.0000000000
      5834        44  POPC      H12S           22.4951198453       31.0899507369        7.3521060520  MEMB      44              0.0000000000
      5835        44  POPC      C213           23.6203593060       31.1780375709        5.5669428795  MEMB      44              0.0000000000
      5836        44  POPC      H13R           23.7009505542       30.0752208584        5.6747440523  MEMB      44              0.0000000000
      5837        44  POPC      H13S           24.6124258100       31.4142319894        5.1261051525  MEMB      44              0.0000000000
      5838        44  POPC      C214           22.4515536553       31.4649968179        4.6189516951  MEMB      44              0.0000000000
      5839        44  POPC      H14R           21.4707302493       31.0767283013        4.9675963218  MEMB      44              0.0000000000
      5840        44  POPC      H14S           22.6798043749       30.7765924174        3.7773326852  MEMB      44              0.0000000000
      5841        44  POPC      C215           22.2916555487       32.9287508229        4.1677559956  MEMB      44              0.0000000000
      5842        44  POPC      H15R           22.3383643734       33.5733095955        5.0714611413  MEMB      44              0.0000000000
      5843        44  POPC      H15S           21.2603725545       33.1512826289        3.8195365816  MEMB      44              0.0000000000
      5844        44  POPC      C216           23.3481805472       33.5651553802        3.2070370282  MEMB      44              0.0000000000
      5845        44  POPC      H16R           24.2757456818       33.6959068691        3.8044040985  MEMB      44              0.0000000000
      5846        44  POPC      H16S           22.9967145235       34.5289787051        2.7806135131  MEMB      44              0.0000000000
      5847        44  POPC      C217           23.7979574584       32.7764460504        1.9781122899  MEMB      44              0.0000000000
      5848        44  POPC      H17R           24.3054691582       31.7999110251        2.1302077200  MEMB      44              0.0000000000
      5849        44  POPC      H17S           24.4913608359       33.3887029169        1.3627642501  MEMB      44              0.0000000000
      5850        44  POPC      C218           22.6006982798       32.4042402350        1.0771012432  MEMB      44              0.0000000000
      5851        44  POPC      H18R           22.9004427924       31.7291652961        0.2471931637  MEMB      44              0.0000000000
      5852        44  POPC      H18S           22.1817365437       33.3036108030        0.5771770011  MEMB      44              0.0000000000
      5853        44  POPC      H18T           21.8631526716       31.8957383884        1.7341953062  MEMB      44              0.0000000000
      5854        44  POPC      C33            29.1627105412       30.5862303694       13.7151566338  MEMB      44              0.0000000000
      5855        44  POPC      H3X            28.5859183178       31.5297770757       13.8216994852  MEMB      44              0.0000000000
      5856        44  POPC      H3Y            28.4958136005       29.8369776190       14.1928485614  MEMB      44              0.0000000000
      5857        44  POPC      C34            29.1836822248       30.3815430062       12.1794216764  MEMB      44              0.0000000000
      5858        44  POPC      H4X            28.1003378248       30.4354791929       11.9390535549  MEMB      44              0.0000000000
      5859        44  POPC      H4Y            29.4338520177       29.3094936961       12.0296003909  MEMB      44              0.0000000000
      5860        44  POPC      C35            29.9204762712       31.4747362423       11.4773525079  MEMB      44              0.0000000000
      5861        44  POPC      H5X            31.0231625258       31.3414483264       11.5026210983  MEMB      44              0.0000000000
      5862        44  POPC      H5Y            29.8652293071       32.4055206795       12.0814300776  MEMB      44              0.0000000000
      5863        44  POPC      C36            29.4240491700       31.7421395786       10.0367962877  MEMB      44              0.0000000000
      5864        44  POPC      H6X            29.7936628379       32.7419627505        9.7236507475  MEMB      44              0.0000000000
      5865        44  POPC      H6Y            28.3224931657       31.8378016091        9.9284251559  MEMB      44              0.0000000000
      5866        44  POPC      C37            29.9153840064       30.5802404714        9.1961733375  MEMB      44              0.0000000000
      5867        44  POPC      H7X            29.5102584679       29.5853342220        9.4796440606  MEMB      44              0.0000000000
      5868        44  POPC      H7Y            31.0143354298       30.4784327505        9.3236934010  MEMB      44              0.0000000000
      5869        44  POPC      C38            29.8977561515       30.9384339855        7.6864721889  MEMB      44              0.0000000000
      5870        44  POPC      H8X            30.4535213735       31.8826150082        7.5021676015  MEMB      44              0.0000000000
      5871        44  POPC      H8Y            28.8460539455       31.1217648748        7.3788479889  MEMB      44              0.0000000000
      5872        44  POPC      C39            30.3866320927       29.7619215737        6.8236233740  MEMB      44              0.0000000000
      5873        44  POPC      H9X            31.1738643498       29.3474861940        7.4890778375  MEMB      44              0.0000000000
      5874        44  POPC      H9Y            30.8498079553       30.2364003801        5.9321870962  MEMB      44              0.0000000000
      5875        44  POPC      C310           29.3579685276       28.6904527676        6.4704385015  MEMB      44              0.0000000000
      5876        44  POPC      H10X           29.0152786791       28.3716015778        7.4780190714  MEMB      44              0.0000000000
      5877        44  POPC      H10Y           29.9401349050       27.9804179616        5.8449354176  MEMB      44              0.0000000000
      5878        44  POPC      C311           28.1617531070       29.0076746917        5.5505719113  MEMB      44              0.0000000000
      5879        44  POPC      H11X           27.2401296433       29.3509451769        6.0673860087  MEMB      44              0.0000000000
      5880        44  POPC      H11Y           27.7986291210       28.0238228222        5.1838329137  MEMB      44              0.0000000000
      5881        44  POPC      C312           28.4134293360       30.0964780659        4.5377154109  MEMB      44              0.0000000000
      5882        44  POPC      H12X           29.3219432678       29.7726129501        3.9863215139  MEMB      44              0.0000000000
      5883        44  POPC      H12Y           28.5521235943       31.0247921955        5.1321211259  MEMB      44              0.0000000000
      5884        44  POPC      C313           27.2250103262       30.3141400659        3.5096261427  MEMB      44              0.0000000000
      5885        44  POPC      H13X           27.2156858652       31.3612514728        3.1384238938  MEMB      44              0.0000000000
      5886        44  POPC      H13Y           26.2902289088       30.0514003379        4.0495087513  MEMB      44              0.0000000000
      5887        44  POPC      C314           27.3880171931       29.3722488825        2.2231844055  MEMB      44              0.0000000000
      5888        44  POPC      H14X           27.4766745563       28.3223133372        2.5754569449  MEMB      44              0.0000000000
      5889        44  POPC      H14Y           28.2990198247       29.6055292663        1.6315956994  MEMB      44              0.0000000000
      5890        44  POPC      C315           26.2312025923       29.5298582919        1.2558216952  MEMB      44              0.0000000000
      5891        44  POPC      H15X           26.4580074416       28.9475781385        0.3372191251  MEMB      44              0.0000000000
      5892        44  POPC      H15Y           26.1702260256       30.5785415237        0.8940670351  MEMB      44              0.0000000000
      5893        44  POPC      C316           24.7824234146       29.1326219290        1.5716161276  MEMB      44              0.0000000000
      5894        44  POPC      H16X           24.7761599881       28.0458592327        1.8023310758  MEMB      44              0.0000000000
      5895        44  POPC      H16Y           24.2351517432       29.4138572269        0.6465645134  MEMB      44              0.0000000000
      5896        44  POPC      H16Z           24.3033308415       29.6644229698        2.4213109317  MEMB      44              0.0000000000
      5897        45  POPC      N             -28.1813597209       18.8082108779       18.6165661797  MEMB      45              0.0000000000
      5898        45  POPC      C12           -28.5059963628       20.0669871494       17.8439894842  MEMB      45              0.0000000000
      5899        45  POPC      H12A          -29.4294436986       19.8849539604       17.3143585608  MEMB      45              0.0000000000
      5900        45  POPC      H12B          -27.7488895130       20.1243007658       17.0759370780  MEMB      45              0.0000000000
      5901        45  POPC      C13           -29.4095441562       18.4528819790       19.3776276653  MEMB      45              0.0000000000
      5902        45  POPC      H13A          -29.5603148251       17.4054659399       19.5934694175  MEMB      45              0.0000000000
      5903        45  POPC      H13B          -29.3133886407       18.9633915464       20.3244825820  MEMB      45              0.0000000000
      5904        45  POPC      H13C          -30.2661565137       18.7240625328       18.7783977809  MEMB      45              0.0000000000
      5905        45  POPC      C14           -28.0625987937       17.6835795416       17.5812937197  MEMB      45              0.0000000000
      5906        45  POPC      H14A          -28.2039951581       16.7805151949       18.1565168797  MEMB      45              0.0000000000
      5907        45  POPC      H14B          -28.8880414352       17.7796542087       16.8915009451  MEMB      45              0.0000000000
      5908        45  POPC      H14C          -27.1129273465       17.6772776864       17.0670129952  MEMB      45              0.0000000000
      5909        45  POPC      C15           -27.0021868758       18.6736101436       19.4949355775  MEMB      45              0.0000000000
      5910        45  POPC      H15A          -26.1081407312       18.8260567717       18.9085553814  MEMB      45              0.0000000000
      5911        45  POPC      H15B          -27.0021067227       17.6932894584       19.9481147815  MEMB      45              0.0000000000
      5912        45  POPC      H15C          -26.9669723935       19.3511609344       20.3352241427  MEMB      45              0.0000000000
      5913        45  POPC      C11           -28.5267425955       21.4250601641       18.6548705780  MEMB      45              0.0000000000
      5914        45  POPC      H11A          -28.4810153312       22.3346902793       18.0186290990  MEMB      45              0.0000000000
      5915        45  POPC      H11B          -27.5416982046       21.4614392433       19.1673986109  MEMB      45              0.0000000000
      5916        45  POPC      P             -30.8618482202       22.1854137016       19.5324732904  MEMB      45              0.0000000000
      5917        45  POPC      O13           -30.6148263162       23.6238231950       19.8977503545  MEMB      45              0.0000000000
      5918        45  POPC      O14           -31.9074508778       21.4069580274       20.3219187488  MEMB      45              0.0000000000
      5919        45  POPC      O12           -29.4559261651       21.4603638798       19.7235539996  MEMB      45              0.0000000000
      5920        45  POPC      O11           -30.9554476882       21.9668834935       17.9550204037  MEMB      45              0.0000000000
      5921        45  POPC      C1            -32.2433161725       22.2167826542       17.3732761297  MEMB      45              0.0000000000
      5922        45  POPC      HA            -32.4995240098       23.2674422787       17.6278206987  MEMB      45              0.0000000000
      5923        45  POPC      HB            -32.9713356483       21.5534573045       17.8873851842  MEMB      45              0.0000000000
      5924        45  POPC      C2            -32.2065845330       21.9247917219       15.8507314529  MEMB      45              0.0000000000
      5925        45  POPC      HS            -33.2127237275       22.1228931065       15.4232257666  MEMB      45              0.0000000000
      5926        45  POPC      O21           -31.8269353172       20.5576606059       15.4904638982  MEMB      45              0.0000000000
      5927        45  POPC      C21           -32.6849049159       19.5934915353       15.8600539491  MEMB      45              0.0000000000
      5928        45  POPC      O22           -33.8657938876       19.7326927122       16.1605369482  MEMB      45              0.0000000000
      5929        45  POPC      C22           -31.9814600240       18.2202009407       15.9209625825  MEMB      45              0.0000000000
      5930        45  POPC      H2R           -32.0991667719       17.8211284129       16.9511118081  MEMB      45              0.0000000000
      5931        45  POPC      H2S           -30.8932653508       18.2759925934       15.7040742583  MEMB      45              0.0000000000
      5932        45  POPC      C3            -31.3261051047       22.8202680840       14.9774076228  MEMB      45              0.0000000000
      5933        45  POPC      HX            -31.5539825189       23.8844378394       15.2008709434  MEMB      45              0.0000000000
      5934        45  POPC      HY            -31.6166411999       22.7331123331       13.9086170352  MEMB      45              0.0000000000
      5935        45  POPC      O31           -29.9306208389       22.5700487734       15.2188732371  MEMB      45              0.0000000000
      5936        45  POPC      C31           -29.2270386757       22.3028390943       14.1497108569  MEMB      45              0.0000000000
      5937        45  POPC      O32           -29.6449356972       22.2028626578       13.0283817713  MEMB      45              0.0000000000
      5938        45  POPC      C32           -27.7962119874       21.9732289457       14.6240698680  MEMB      45              0.0000000000
      5939        45  POPC      H2X           -27.7475561659       21.9901952026       15.7338741309  MEMB      45              0.0000000000
      5940        45  POPC      H2Y           -27.2072601867       22.7988271107       14.1703689158  MEMB      45              0.0000000000
      5941        45  POPC      C23           -32.4691238966       17.2329275432       14.8643987413  MEMB      45              0.0000000000
      5942        45  POPC      H3R           -33.5296641082       17.0277857598       15.1241908412  MEMB      45              0.0000000000
      5943        45  POPC      H3S           -31.8583394353       16.3049555186       14.8529536391  MEMB      45              0.0000000000
      5944        45  POPC      C24           -32.4944204811       17.8300930208       13.4999665246  MEMB      45              0.0000000000
      5945        45  POPC      H4R           -31.7242512436       18.5548510847       13.1595465396  MEMB      45              0.0000000000
      5946        45  POPC      H4S           -33.4485531595       18.3836143562       13.3674300412  MEMB      45              0.0000000000
      5947        45  POPC      C25           -32.4473182769       16.7860874831       12.3475637566  MEMB      45              0.0000000000
      5948        45  POPC      H5R           -33.2042144562       15.9855779928       12.4911400243  MEMB      45              0.0000000000
      5949        45  POPC      H5S           -31.4389592100       16.3285049539       12.4378476515  MEMB      45              0.0000000000
      5950        45  POPC      C26           -32.5047692484       17.4156880418       10.8934608272  MEMB      45              0.0000000000
      5951        45  POPC      H6R           -32.8164186057       18.4788275108       10.9767080690  MEMB      45              0.0000000000
      5952        45  POPC      H6S           -33.3285831869       16.9059018914       10.3496135825  MEMB      45              0.0000000000
      5953        45  POPC      C27           -31.2413652473       17.2734988035       10.0778338363  MEMB      45              0.0000000000
      5954        45  POPC      H7R           -31.0035144990       16.1916699472        9.9918430168  MEMB      45              0.0000000000
      5955        45  POPC      H7S           -30.3948852174       17.8023916788       10.5657528644  MEMB      45              0.0000000000
      5956        45  POPC      C28           -31.4009857874       17.8176873510        8.6863061105  MEMB      45              0.0000000000
      5957        45  POPC      H8R           -31.8134511532       18.8459769533        8.7688514889  MEMB      45              0.0000000000
      5958        45  POPC      H8S           -32.1574359697       17.1681624339        8.1961829096  MEMB      45              0.0000000000
      5959        45  POPC      C29           -30.2457425872       17.8037019192        7.7803965128  MEMB      45              0.0000000000
      5960        45  POPC      H91           -29.2533850002       18.0049127586        8.2102110277  MEMB      45              0.0000000000
      5961        45  POPC      C210          -30.1946968276       17.7785657141        6.4082231999  MEMB      45              0.0000000000
      5962        45  POPC      H101          -29.2831584113       17.7527044087        5.7930571507  MEMB      45              0.0000000000
      5963        45  POPC      C211          -31.4455061142       17.6983697254        5.5591223645  MEMB      45              0.0000000000
      5964        45  POPC      H11R          -31.8554522486       18.6910391395        5.2747410545  MEMB      45              0.0000000000
      5965        45  POPC      H11S          -32.1563593194       17.0216598680        6.0797679064  MEMB      45              0.0000000000
      5966        45  POPC      C212          -31.3453813524       16.9421775836        4.1753639396  MEMB      45              0.0000000000
      5967        45  POPC      H12R          -31.1776874737       15.8566022605        4.3418774794  MEMB      45              0.0000000000
      5968        45  POPC      H12S          -30.4813250792       17.3717556794        3.6247369765  MEMB      45              0.0000000000
      5969        45  POPC      C213          -32.6085235671       17.1264824091        3.2786136118  MEMB      45              0.0000000000
      5970        45  POPC      H13R          -33.5510020120       16.9246515821        3.8311711423  MEMB      45              0.0000000000
      5971        45  POPC      H13S          -32.5641802084       16.4608541510        2.3901913470  MEMB      45              0.0000000000
      5972        45  POPC      C214          -32.6329344782       18.4461101897        2.4825824367  MEMB      45              0.0000000000
      5973        45  POPC      H14R          -31.9104217070       18.3695026842        1.6420901731  MEMB      45              0.0000000000
      5974        45  POPC      H14S          -32.4310037420       19.3230117839        3.1341878043  MEMB      45              0.0000000000
      5975        45  POPC      C215          -34.0624764226       18.7587105244        1.9145979339  MEMB      45              0.0000000000
      5976        45  POPC      H15R          -34.8299239781       18.6213622706        2.7061042375  MEMB      45              0.0000000000
      5977        45  POPC      H15S          -34.3047550340       18.1191227052        1.0390699998  MEMB      45              0.0000000000
      5978        45  POPC      C216          -34.1622621549       20.2638376294        1.4991944238  MEMB      45              0.0000000000
      5979        45  POPC      H16R          -33.2625353200       20.5150786885        0.8977875998  MEMB      45              0.0000000000
      5980        45  POPC      H16S          -34.1823838048       20.9722630200        2.3547926337  MEMB      45              0.0000000000
      5981        45  POPC      C217          -35.4581406657       20.5231513980        0.7048178418  MEMB      45              0.0000000000
      5982        45  POPC      H17R          -36.3006522352       20.1967600141        1.3513200553  MEMB      45              0.0000000000
      5983        45  POPC      H17S          -35.4248962431       20.0100399010       -0.2800327447  MEMB      45              0.0000000000
      5984        45  POPC      C218          -35.5441079444       22.0141175255        0.4070571132  MEMB      45              0.0000000000
      5985        45  POPC      H18R          -34.7324261595       22.4072471255       -0.2417446376  MEMB      45              0.0000000000
      5986        45  POPC      H18S          -35.4569487405       22.6013720590        1.3461286795  MEMB      45              0.0000000000
      5987        45  POPC      H18T          -36.5062207780       22.3453858970       -0.0389491463  MEMB      45              0.0000000000
      5988        45  POPC      C33           -27.4233452151       20.6073887965       14.1065507986  MEMB      45              0.0000000000
      5989        45  POPC      H3X           -28.2054899422       19.8212611926       14.1741822198  MEMB      45              0.0000000000
      5990        45  POPC      H3Y           -26.5494635540       20.2738193860       14.7060365594  MEMB      45              0.0000000000
      5991        45  POPC      C34           -26.9694558596       20.6712866533       12.6214795907  MEMB      45              0.0000000000
      5992        45  POPC      H4X           -26.2610027586       21.5180785822       12.4975484757  MEMB      45              0.0000000000
      5993        45  POPC      H4Y           -27.8648569578       21.0168302526       12.0618575054  MEMB      45              0.0000000000
      5994        45  POPC      C35           -26.5272149825       19.3227750610       12.0892555632  MEMB      45              0.0000000000
      5995        45  POPC      H5X           -27.4059481875       18.6449332516       12.1410170508  MEMB      45              0.0000000000
      5996        45  POPC      H5Y           -25.7736676137       18.8874321514       12.7798814694  MEMB      45              0.0000000000
      5997        45  POPC      C36           -25.7849568345       19.2472314219       10.7471893215  MEMB      45              0.0000000000
      5998        45  POPC      H6X           -25.3857121759       18.2569120921       10.4402818800  MEMB      45              0.0000000000
      5999        45  POPC      H6Y           -24.9160778618       19.9380567230       10.7933478549  MEMB      45              0.0000000000
      6000        45  POPC      C37           -26.7455791457       19.8374329536        9.7312069847  MEMB      45              0.0000000000
      6001        45  POPC      H7X           -26.8239494650       20.9221538859        9.9582747932  MEMB      45              0.0000000000
      6002        45  POPC      H7Y           -27.7111919662       19.2883394267        9.7514374542  MEMB      45              0.0000000000
      6003        45  POPC      C38           -26.1167992662       19.6847072219        8.3276178539  MEMB      45              0.0000000000
      6004        45  POPC      H8X           -25.7707048708       18.6302245257        8.2765661707  MEMB      45              0.0000000000
      6005        45  POPC      H8Y           -25.1478316299       20.2275940060        8.3012188294  MEMB      45              0.0000000000
      6006        45  POPC      C39           -27.0765289395       20.0089998644        7.1457127462  MEMB      45              0.0000000000
      6007        45  POPC      H9X           -27.7009324943       19.0902186236        7.1289119408  MEMB      45              0.0000000000
      6008        45  POPC      H9Y           -26.4111198934       19.8961305600        6.2632092885  MEMB      45              0.0000000000
      6009        45  POPC      C310          -27.7449636225       21.3025670172        7.2241241008  MEMB      45              0.0000000000
      6010        45  POPC      H10X          -27.1978564810       22.2317489277        7.4917357265  MEMB      45              0.0000000000
      6011        45  POPC      H10Y          -28.4939874866       21.1964514186        8.0377730933  MEMB      45              0.0000000000
      6012        45  POPC      C311          -28.2167948741       21.7407096338        5.8235329104  MEMB      45              0.0000000000
      6013        45  POPC      H11X          -27.3439166871       21.8408450379        5.1435490392  MEMB      45              0.0000000000
      6014        45  POPC      H11Y          -28.6647414226       22.7566460792        5.8627496255  MEMB      45              0.0000000000
      6015        45  POPC      C312          -29.1037913772       20.7734252993        5.1036832873  MEMB      45              0.0000000000
      6016        45  POPC      H12X          -30.0596224357       20.8514740356        5.6645900341  MEMB      45              0.0000000000
      6017        45  POPC      H12Y          -28.7083654525       19.7363787308        5.0537457536  MEMB      45              0.0000000000
      6018        45  POPC      C313          -29.4658734634       21.2486648002        3.6830924718  MEMB      45              0.0000000000
      6019        45  POPC      H13X          -29.9016414246       20.4586766505        3.0347510121  MEMB      45              0.0000000000
      6020        45  POPC      H13Y          -28.5138608972       21.4905151360        3.1639568751  MEMB      45              0.0000000000
      6021        45  POPC      C314          -30.3266665876       22.5338263272        3.6066996282  MEMB      45              0.0000000000
      6022        45  POPC      H14X          -29.9198152294       23.2930796644        4.3083607844  MEMB      45              0.0000000000
      6023        45  POPC      H14Y          -31.3192038445       22.2622296240        4.0255390484  MEMB      45              0.0000000000
      6024        45  POPC      C315          -30.5606222889       23.2872083757        2.2457485254  MEMB      45              0.0000000000
      6025        45  POPC      H15X          -29.6813732140       23.8980825651        1.9489752307  MEMB      45              0.0000000000
      6026        45  POPC      H15Y          -31.4016236580       24.0050426007        2.3541531476  MEMB      45              0.0000000000
      6027        45  POPC      C316          -30.6681676931       22.3672475933        0.9757987502  MEMB      45              0.0000000000
      6028        45  POPC      H16X          -31.4509300053       21.5789453789        0.9893563007  MEMB      45              0.0000000000
      6029        45  POPC      H16Y          -29.7354983579       21.7765464785        1.1003814774  MEMB      45              0.0000000000
      6030        45  POPC      H16Z          -30.8156670158       22.9869072198        0.0655311901  MEMB      45              0.0000000000
      6031        46  POPC      N             -25.2892303619       26.6994076986       19.5005135602  MEMB      46              0.0000000000
      6032        46  POPC      C12           -24.2401696413       27.8561953036       19.4358653321  MEMB      46              0.0000000000
      6033        46  POPC      H12A          -23.2588808855       27.4869515936       19.1767678364  MEMB      46              0.0000000000
      6034        46  POPC      H12B          -24.1511905109       28.2436944887       20.4400203103  MEMB      46              0.0000000000
      6035        46  POPC      C13           -26.6231167661       27.1635695106       20.0792165113  MEMB      46              0.0000000000
      6036        46  POPC      H13A          -26.5167328304       27.6380075187       21.0435770113  MEMB      46              0.0000000000
      6037        46  POPC      H13B          -26.9957451738       27.9042352174       19.3871455553  MEMB      46              0.0000000000
      6038        46  POPC      H13C          -27.3164029085       26.3478643017       20.2219735082  MEMB      46              0.0000000000
      6039        46  POPC      C14           -25.5000208756       26.2001557001       18.1961644828  MEMB      46              0.0000000000
      6040        46  POPC      H14A          -25.8857413373       26.8739127874       17.4453841881  MEMB      46              0.0000000000
      6041        46  POPC      H14B          -24.5786968280       25.7008605645       17.9348858546  MEMB      46              0.0000000000
      6042        46  POPC      H14C          -26.2540202155       25.4288228553       18.1420279278  MEMB      46              0.0000000000
      6043        46  POPC      C15           -24.7695379210       25.5446374168       20.4095548241  MEMB      46              0.0000000000
      6044        46  POPC      H15A          -25.5976217724       24.8556141337       20.3325872162  MEMB      46              0.0000000000
      6045        46  POPC      H15B          -24.5018651891       25.9427505368       21.3771586411  MEMB      46              0.0000000000
      6046        46  POPC      H15C          -23.7940567490       25.2771018741       20.0310560388  MEMB      46              0.0000000000
      6047        46  POPC      C11           -24.5626393874       29.0784594207       18.6042784463  MEMB      46              0.0000000000
      6048        46  POPC      H11A          -24.8613763413       28.8070669610       17.5691825818  MEMB      46              0.0000000000
      6049        46  POPC      H11B          -23.6882411563       29.7559932413       18.7077029066  MEMB      46              0.0000000000
      6050        46  POPC      P             -26.0728700396       31.2036264551       18.5937877681  MEMB      46              0.0000000000
      6051        46  POPC      O13           -24.8558205711       31.8368392652       18.0465032305  MEMB      46              0.0000000000
      6052        46  POPC      O14           -26.9774750586       31.9771954860       19.5403980015  MEMB      46              0.0000000000
      6053        46  POPC      O12           -25.6269639338       29.8178106310       19.2415196691  MEMB      46              0.0000000000
      6054        46  POPC      O11           -26.8957417463       30.7172035118       17.3521981744  MEMB      46              0.0000000000
      6055        46  POPC      C1            -27.9125660976       31.4277391005       16.7662952988  MEMB      46              0.0000000000
      6056        46  POPC      HA            -27.6692628865       32.5110351116       16.8062238889  MEMB      46              0.0000000000
      6057        46  POPC      HB            -28.8267298879       31.3384301756       17.3913149175  MEMB      46              0.0000000000
      6058        46  POPC      C2            -28.0902745850       31.1114266722       15.3077034197  MEMB      46              0.0000000000
      6059        46  POPC      HS            -29.0677738320       31.4588096415       14.9100333042  MEMB      46              0.0000000000
      6060        46  POPC      O21           -28.0503464776       29.7518662432       14.9281166737  MEMB      46              0.0000000000
      6061        46  POPC      C21           -29.1371167563       28.9823044453       15.1913853514  MEMB      46              0.0000000000
      6062        46  POPC      O22           -30.1153034709       29.2724877959       15.8078243673  MEMB      46              0.0000000000
      6063        46  POPC      C22           -28.7433611358       27.5711542705       14.7416027111  MEMB      46              0.0000000000
      6064        46  POPC      H2R           -29.6516703298       26.9712689957       14.9639389475  MEMB      46              0.0000000000
      6065        46  POPC      H2S           -27.8835523521       27.1811460072       15.3272164800  MEMB      46              0.0000000000
      6066        46  POPC      C3            -26.9165341343       31.8048002323       14.4784076865  MEMB      46              0.0000000000
      6067        46  POPC      HX            -25.9718706605       31.4501166228       14.9433069660  MEMB      46              0.0000000000
      6068        46  POPC      HY            -26.9906142594       32.9066711048       14.5997076075  MEMB      46              0.0000000000
      6069        46  POPC      O31           -27.0237976798       31.5379675775       13.0492416449  MEMB      46              0.0000000000
      6070        46  POPC      C31           -25.9884533033       31.8410066142       12.3378261043  MEMB      46              0.0000000000
      6071        46  POPC      O32           -25.0456277985       32.4663141902       12.6497387020  MEMB      46              0.0000000000
      6072        46  POPC      C32           -26.2892624992       31.1939176910       10.9218362211  MEMB      46              0.0000000000
      6073        46  POPC      H2X           -26.7405768717       30.1949974239       11.1029296186  MEMB      46              0.0000000000
      6074        46  POPC      H2Y           -25.3863582156       31.0358239404       10.2940700721  MEMB      46              0.0000000000
      6075        46  POPC      C23           -28.4280128580       27.5813033280       13.2877327000  MEMB      46              0.0000000000
      6076        46  POPC      H3R           -27.4146390566       28.0251096234       13.1856016328  MEMB      46              0.0000000000
      6077        46  POPC      H3S           -29.1579097214       28.1939615131       12.7165751939  MEMB      46              0.0000000000
      6078        46  POPC      C24           -28.4233700363       26.1574623097       12.6654536008  MEMB      46              0.0000000000
      6079        46  POPC      H4R           -29.3754671479       25.6380929018       12.9064673356  MEMB      46              0.0000000000
      6080        46  POPC      H4S           -27.6971705188       25.5406680819       13.2368726145  MEMB      46              0.0000000000
      6081        46  POPC      C25           -28.2815339104       25.9920891873       11.1432668970  MEMB      46              0.0000000000
      6082        46  POPC      H5R           -29.1505448905       26.4431713546       10.6182276992  MEMB      46              0.0000000000
      6083        46  POPC      H5S           -28.2404289273       24.9016373042       10.9345914692  MEMB      46              0.0000000000
      6084        46  POPC      C26           -27.0514702166       26.6270758743       10.4823909840  MEMB      46              0.0000000000
      6085        46  POPC      H6R           -26.1982394578       26.1264470831       10.9880482896  MEMB      46              0.0000000000
      6086        46  POPC      H6S           -27.0113783605       27.7234500142       10.6575396160  MEMB      46              0.0000000000
      6087        46  POPC      C27           -26.8515187073       26.3977572225        8.9728168322  MEMB      46              0.0000000000
      6088        46  POPC      H7R           -27.5946739810       27.0253847153        8.4360443221  MEMB      46              0.0000000000
      6089        46  POPC      H7S           -27.1693889026       25.3754355065        8.6759368931  MEMB      46              0.0000000000
      6090        46  POPC      C28           -25.3596073862       26.3630989716        8.5618839476  MEMB      46              0.0000000000
      6091        46  POPC      H8R           -25.0928255650       26.2288061905        7.4917838798  MEMB      46              0.0000000000
      6092        46  POPC      H8S           -24.9023931248       25.4397510360        8.9774618100  MEMB      46              0.0000000000
      6093        46  POPC      C29           -24.5617077751       27.3985636109        9.1763331316  MEMB      46              0.0000000000
      6094        46  POPC      H91           -24.4465903882       27.4309765496       10.2698125068  MEMB      46              0.0000000000
      6095        46  POPC      C210          -23.7767663073       28.3173256509        8.5619349714  MEMB      46              0.0000000000
      6096        46  POPC      H101          -23.4063429649       29.0858328619        9.2563290981  MEMB      46              0.0000000000
      6097        46  POPC      C211          -23.5456238827       28.4660303856        7.0946827671  MEMB      46              0.0000000000
      6098        46  POPC      H11R          -24.2104859635       27.7976930727        6.5068010627  MEMB      46              0.0000000000
      6099        46  POPC      H11S          -22.4862867689       28.3096268959        6.7986022057  MEMB      46              0.0000000000
      6100        46  POPC      C212          -23.8653669032       29.9156898370        6.6464063930  MEMB      46              0.0000000000
      6101        46  POPC      H12R          -23.1597386649       30.6400880520        7.1064681096  MEMB      46              0.0000000000
      6102        46  POPC      H12S          -24.9148215265       30.2396302396        6.8138234034  MEMB      46              0.0000000000
      6103        46  POPC      C213          -23.7368036423       30.1416397710        5.0649191408  MEMB      46              0.0000000000
      6104        46  POPC      H13R          -24.3316743523       29.2885328860        4.6742038554  MEMB      46              0.0000000000
      6105        46  POPC      H13S          -22.6892251898       30.0109398171        4.7187725584  MEMB      46              0.0000000000
      6106        46  POPC      C214          -24.1608928990       31.4866125212        4.4175624564  MEMB      46              0.0000000000
      6107        46  POPC      H14R          -23.8064887011       31.6404600219        3.3759047298  MEMB      46              0.0000000000
      6108        46  POPC      H14S          -23.7477655886       32.2537710099        5.1068473594  MEMB      46              0.0000000000
      6109        46  POPC      C215          -25.6723692393       31.7886447008        4.2956313989  MEMB      46              0.0000000000
      6110        46  POPC      H15R          -25.9659539309       31.9613914780        5.3531231695  MEMB      46              0.0000000000
      6111        46  POPC      H15S          -26.2641436725       30.9195743096        3.9366876456  MEMB      46              0.0000000000
      6112        46  POPC      C216          -26.0961914172       32.9683914176        3.4483258952  MEMB      46              0.0000000000
      6113        46  POPC      H16R          -26.0093028817       32.7801864239        2.3568355062  MEMB      46              0.0000000000
      6114        46  POPC      H16S          -25.5379233879       33.8684528873        3.7838059001  MEMB      46              0.0000000000
      6115        46  POPC      C217          -27.6293540906       33.4223015284        3.6455936732  MEMB      46              0.0000000000
      6116        46  POPC      H17R          -27.7586106146       34.4458220131        3.2332588281  MEMB      46              0.0000000000
      6117        46  POPC      H17S          -27.6246649191       33.3742373383        4.7555433735  MEMB      46              0.0000000000
      6118        46  POPC      C218          -28.5372295004       32.4761778474        2.9248472854  MEMB      46              0.0000000000
      6119        46  POPC      H18R          -28.6571072398       31.4888526426        3.4199642562  MEMB      46              0.0000000000
      6120        46  POPC      H18S          -28.1020058563       32.1885285105        1.9439505366  MEMB      46              0.0000000000
      6121        46  POPC      H18T          -29.5857061195       32.8304031403        2.8271645201  MEMB      46              0.0000000000
      6122        46  POPC      C33           -27.4056885405       32.0044730298       10.1919860734  MEMB      46              0.0000000000
      6123        46  POPC      H3X           -27.1956362842       33.0906216039       10.2943602942  MEMB      46              0.0000000000
      6124        46  POPC      H3Y           -28.3483123703       31.9191456829       10.7737940959  MEMB      46              0.0000000000
      6125        46  POPC      C34           -27.5543096832       31.6044434466        8.7526971448  MEMB      46              0.0000000000
      6126        46  POPC      H4X           -26.6708870760       31.8536444530        8.1267710062  MEMB      46              0.0000000000
      6127        46  POPC      H4Y           -28.3489296432       32.2283047196        8.2904230164  MEMB      46              0.0000000000
      6128        46  POPC      C35           -28.0015033606       30.1421937843        8.6579095677  MEMB      46              0.0000000000
      6129        46  POPC      H5X           -27.7906706455       29.5412326730        9.5682481407  MEMB      46              0.0000000000
      6130        46  POPC      H5Y           -27.5409229977       29.6852137911        7.7560472733  MEMB      46              0.0000000000
      6131        46  POPC      C36           -29.4945198677       30.1745120899        8.6311632415  MEMB      46              0.0000000000
      6132        46  POPC      H6X           -29.8331131317       30.9888454466        9.3068378176  MEMB      46              0.0000000000
      6133        46  POPC      H6Y           -29.9346037676       29.2355105979        9.0298153607  MEMB      46              0.0000000000
      6134        46  POPC      C37           -30.0551295217       30.3821802309        7.1934612259  MEMB      46              0.0000000000
      6135        46  POPC      H7X           -29.4924974596       31.1799469333        6.6630518396  MEMB      46              0.0000000000
      6136        46  POPC      H7Y           -31.1035141759       30.7401001816        7.1091724384  MEMB      46              0.0000000000
      6137        46  POPC      C38           -29.8633811973       29.0065373027        6.4492980488  MEMB      46              0.0000000000
      6138        46  POPC      H8X           -30.8305292084       28.5319625150        6.1777770338  MEMB      46              0.0000000000
      6139        46  POPC      H8Y           -29.5747607786       28.1915631616        7.1470347602  MEMB      46              0.0000000000
      6140        46  POPC      C39           -28.8132307619       29.0712720234        5.3351481620  MEMB      46              0.0000000000
      6141        46  POPC      H9X           -28.1703199624       29.9219817906        5.6470451024  MEMB      46              0.0000000000
      6142        46  POPC      H9Y           -29.3833581775       29.4407088227        4.4560622861  MEMB      46              0.0000000000
      6143        46  POPC      C310          -28.0536768642       27.7212512089        5.0261371707  MEMB      46              0.0000000000
      6144        46  POPC      H10X          -28.7728497798       26.8944057733        4.8432758052  MEMB      46              0.0000000000
      6145        46  POPC      H10Y          -27.5402770000       27.6197432100        6.0061567953  MEMB      46              0.0000000000
      6146        46  POPC      C311          -26.9384676890       27.7508613369        3.9754844319  MEMB      46              0.0000000000
      6147        46  POPC      H11X          -26.1929189625       26.9605335945        4.2075617012  MEMB      46              0.0000000000
      6148        46  POPC      H11Y          -26.3122192292       28.6591944631        4.1061172384  MEMB      46              0.0000000000
      6149        46  POPC      C312          -27.5221511941       27.6279985173        2.5144238295  MEMB      46              0.0000000000
      6150        46  POPC      H12X          -27.8470401343       28.6401923856        2.1915746483  MEMB      46              0.0000000000
      6151        46  POPC      H12Y          -28.3602794813       26.9207469918        2.6923506515  MEMB      46              0.0000000000
      6152        46  POPC      C313          -26.5890503816       26.9742316167        1.5063514003  MEMB      46              0.0000000000
      6153        46  POPC      H13X          -26.9569662018       27.1979954634        0.4821995514  MEMB      46              0.0000000000
      6154        46  POPC      H13Y          -26.3571064608       25.9152362336        1.7493581235  MEMB      46              0.0000000000
      6155        46  POPC      C314          -25.1352061178       27.6096224567        1.5092361497  MEMB      46              0.0000000000
      6156        46  POPC      H14X          -24.6194451462       27.4546570539        2.4809860022  MEMB      46              0.0000000000
      6157        46  POPC      H14Y          -25.0656359570       28.7154046268        1.4272187203  MEMB      46              0.0000000000
      6158        46  POPC      C315          -24.2402027781       26.9042911009        0.4010919031  MEMB      46              0.0000000000
      6159        46  POPC      H15X          -24.9456948642       26.8577050614       -0.4558977640  MEMB      46              0.0000000000
      6160        46  POPC      H15Y          -24.0228290415       25.8976557963        0.8179296220  MEMB      46              0.0000000000
      6161        46  POPC      C316          -22.8328874396       27.4784934028        0.2187374410  MEMB      46              0.0000000000
      6162        46  POPC      H16X          -22.2652040764       26.8591814230        0.9457247722  MEMB      46              0.0000000000
      6163        46  POPC      H16Y          -22.8135402652       28.5823114350        0.3433661976  MEMB      46              0.0000000000
      6164        46  POPC      H16Z          -22.3260882679       27.1141046524       -0.7003357401  MEMB      46              0.0000000000
      6165        47  POPC      N              30.8188586653      -25.9405278819       20.5656766282  MEMB      47              0.0000000000
      6166        47  POPC      C12            30.5754142360      -26.2589934540       19.1248702045  MEMB      47              0.0000000000
      6167        47  POPC      H12A           30.0726656591      -27.2121350248       19.0530018918  MEMB      47              0.0000000000
      6168        47  POPC      H12B           31.5219294024      -26.3516816654       18.6130909650  MEMB      47              0.0000000000
      6169        47  POPC      C13            31.8875227940      -24.9176532975       20.8846469217  MEMB      47              0.0000000000
      6170        47  POPC      H13A           31.8717740782      -24.1103940427       20.1673710949  MEMB      47              0.0000000000
      6171        47  POPC      H13B           31.8265970477      -24.6213473702       21.9214161118  MEMB      47              0.0000000000
      6172        47  POPC      H13C           32.8397764816      -25.3938702839       20.7034548014  MEMB      47              0.0000000000
      6173        47  POPC      C14            29.5752524775      -25.4968554349       21.2312329794  MEMB      47              0.0000000000
      6174        47  POPC      H14A           29.7682068399      -25.3453049493       22.2829937530  MEMB      47              0.0000000000
      6175        47  POPC      H14B           29.1251547407      -24.6131004912       20.8036942684  MEMB      47              0.0000000000
      6176        47  POPC      H14C           28.7511692326      -26.1947780860       21.2174181007  MEMB      47              0.0000000000
      6177        47  POPC      C15            31.2204607955      -27.2331666954       21.1846752974  MEMB      47              0.0000000000
      6178        47  POPC      H15A           31.8888906862      -26.9580218911       21.9871070805  MEMB      47              0.0000000000
      6179        47  POPC      H15B           31.9177681974      -27.6914617223       20.4990165571  MEMB      47              0.0000000000
      6180        47  POPC      H15C           30.3970462007      -27.8626956400       21.4881248807  MEMB      47              0.0000000000
      6181        47  POPC      C11            29.6191948669      -25.2662640332       18.2763076389  MEMB      47              0.0000000000
      6182        47  POPC      H11A           28.5718587293      -25.5893046493       18.4581118897  MEMB      47              0.0000000000
      6183        47  POPC      H11B           30.0386789127      -25.4967770348       17.2737020782  MEMB      47              0.0000000000
      6184        47  POPC      P              29.9284070923      -22.8063178210       17.5175789311  MEMB      47              0.0000000000
      6185        47  POPC      O13            31.1599731641      -23.0722583262       16.7952513859  MEMB      47              0.0000000000
      6186        47  POPC      O14            29.7911747015      -21.4672873857       18.0713228670  MEMB      47              0.0000000000
      6187        47  POPC      O12            29.8285753027      -23.9024536552       18.7368509818  MEMB      47              0.0000000000
      6188        47  POPC      O11            28.6433255973      -23.2280995203       16.6115861902  MEMB      47              0.0000000000
      6189        47  POPC      C1             27.2952992518      -22.9179140369       17.0168955156  MEMB      47              0.0000000000
      6190        47  POPC      HA             27.3048103652      -21.9421951858       17.5481236580  MEMB      47              0.0000000000
      6191        47  POPC      HB             26.8605821254      -23.6975700942       17.6783170762  MEMB      47              0.0000000000
      6192        47  POPC      C2             26.5332078469      -22.7253333441       15.6427615948  MEMB      47              0.0000000000
      6193        47  POPC      HS             25.5208332104      -22.4066528382       15.9711841679  MEMB      47              0.0000000000
      6194        47  POPC      O21            26.5035362486      -23.8979741116       14.8773981230  MEMB      47              0.0000000000
      6195        47  POPC      C21            25.8885311078      -25.0169407253       15.3286695805  MEMB      47              0.0000000000
      6196        47  POPC      O22            25.2450991707      -25.1105718802       16.3455499923  MEMB      47              0.0000000000
      6197        47  POPC      C22            25.8705995787      -25.9770274821       14.1639701421  MEMB      47              0.0000000000
      6198        47  POPC      H2R            24.9295920379      -25.9597644317       13.5736077832  MEMB      47              0.0000000000
      6199        47  POPC      H2S            25.7640345873      -26.9756212922       14.6391283604  MEMB      47              0.0000000000
      6200        47  POPC      C3             27.1714681894      -21.6702913396       14.7136661110  MEMB      47              0.0000000000
      6201        47  POPC      HX             27.1567333496      -20.7198921031       15.2888579401  MEMB      47              0.0000000000
      6202        47  POPC      HY             26.5534387814      -21.5776672398       13.7950905066  MEMB      47              0.0000000000
      6203        47  POPC      O31            28.4483547442      -22.0471771162       14.2637360315  MEMB      47              0.0000000000
      6204        47  POPC      C31            29.1987219021      -20.9685646423       13.9293816835  MEMB      47              0.0000000000
      6205        47  POPC      O32            28.9075516370      -19.8008665866       13.9973920932  MEMB      47              0.0000000000
      6206        47  POPC      C32            30.5858674297      -21.4983901331       13.4930599543  MEMB      47              0.0000000000
      6207        47  POPC      H2X            30.9030188128      -22.1831853238       14.3084075677  MEMB      47              0.0000000000
      6208        47  POPC      H2Y            31.2337893456      -20.6123260055       13.3215694520  MEMB      47              0.0000000000
      6209        47  POPC      C23            27.0925310223      -25.7940597002       13.2689839749  MEMB      47              0.0000000000
      6210        47  POPC      H3R            27.9427592851      -25.8679982713       13.9802970994  MEMB      47              0.0000000000
      6211        47  POPC      H3S            27.0669566236      -24.7690509488       12.8411708595  MEMB      47              0.0000000000
      6212        47  POPC      C24            27.2131858606      -26.8351959239       12.1484765258  MEMB      47              0.0000000000
      6213        47  POPC      H4R            26.2162511439      -26.7852183586       11.6606810867  MEMB      47              0.0000000000
      6214        47  POPC      H4S            27.3557846186      -27.8713600274       12.5231097847  MEMB      47              0.0000000000
      6215        47  POPC      C25            28.3794298794      -26.5538368985       11.2237105132  MEMB      47              0.0000000000
      6216        47  POPC      H5R            29.3201104358      -26.5656428181       11.8147278859  MEMB      47              0.0000000000
      6217        47  POPC      H5S            28.3401513411      -25.4774645459       10.9513126459  MEMB      47              0.0000000000
      6218        47  POPC      C26            28.3990741114      -27.4748689715       10.0130971223  MEMB      47              0.0000000000
      6219        47  POPC      H6R            27.4696577393      -27.3952290990        9.4096371796  MEMB      47              0.0000000000
      6220        47  POPC      H6S            28.5343338292      -28.5265847225       10.3446385446  MEMB      47              0.0000000000
      6221        47  POPC      C27            29.6177381412      -27.2678163319        9.0570645113  MEMB      47              0.0000000000
      6222        47  POPC      H7R            29.8131431596      -28.2460689225        8.5680251072  MEMB      47              0.0000000000
      6223        47  POPC      H7S            30.4490427017      -26.9313782479        9.7128566134  MEMB      47              0.0000000000
      6224        47  POPC      C28            29.3616765123      -26.2870647790        7.9397412912  MEMB      47              0.0000000000
      6225        47  POPC      H8R            28.3634968923      -26.5639586161        7.5381337623  MEMB      47              0.0000000000
      6226        47  POPC      H8S            30.1216757790      -26.5520035964        7.1738890328  MEMB      47              0.0000000000
      6227        47  POPC      C29            29.4535378805      -24.8140495607        8.4367804845  MEMB      47              0.0000000000
      6228        47  POPC      H91            30.4433031095      -24.6026569381        8.8676838707  MEMB      47              0.0000000000
      6229        47  POPC      C210           28.4719283461      -23.9221881178        8.4641568302  MEMB      47              0.0000000000
      6230        47  POPC      H101           28.6713851666      -22.9435721432        8.9251648498  MEMB      47              0.0000000000
      6231        47  POPC      C211           27.0590894816      -24.1536318089        8.0328770924  MEMB      47              0.0000000000
      6232        47  POPC      H11R           26.4023068726      -23.6647454855        8.7838418000  MEMB      47              0.0000000000
      6233        47  POPC      H11S           26.8901234172      -25.2308852987        8.2457066274  MEMB      47              0.0000000000
      6234        47  POPC      C212           26.5962360245      -23.7352447326        6.6690894541  MEMB      47              0.0000000000
      6235        47  POPC      H12R           27.2520005347      -22.9332993732        6.2676203697  MEMB      47              0.0000000000
      6236        47  POPC      H12S           25.5988640261      -23.2526732608        6.5872682131  MEMB      47              0.0000000000
      6237        47  POPC      C213           26.6367807182      -24.9224411535        5.6253831584  MEMB      47              0.0000000000
      6238        47  POPC      H13R           27.7215910020      -25.1175778326        5.4859940119  MEMB      47              0.0000000000
      6239        47  POPC      H13S           26.1959436031      -24.5398567676        4.6800716534  MEMB      47              0.0000000000
      6240        47  POPC      C214           25.8883941225      -26.2015349609        6.1256232268  MEMB      47              0.0000000000
      6241        47  POPC      H14R           24.9301920028      -25.8207784918        6.5393792924  MEMB      47              0.0000000000
      6242        47  POPC      H14S           26.4518550236      -26.8191217178        6.8573472855  MEMB      47              0.0000000000
      6243        47  POPC      C215           25.4107566547      -26.9939589035        4.9502827466  MEMB      47              0.0000000000
      6244        47  POPC      H15R           24.7630313972      -26.3111022493        4.3599607058  MEMB      47              0.0000000000
      6245        47  POPC      H15S           24.8344524298      -27.9038346826        5.2229005813  MEMB      47              0.0000000000
      6246        47  POPC      C216           26.6174339388      -27.4361407940        4.0176928451  MEMB      47              0.0000000000
      6247        47  POPC      H16R           27.5095261367      -27.7220807586        4.6149627319  MEMB      47              0.0000000000
      6248        47  POPC      H16S           26.9151469084      -26.4995220865        3.4995877010  MEMB      47              0.0000000000
      6249        47  POPC      C217           25.9228868308      -28.4210134131        3.0432502634  MEMB      47              0.0000000000
      6250        47  POPC      H17R           25.1856993651      -27.7743153322        2.5210852412  MEMB      47              0.0000000000
      6251        47  POPC      H17S           25.3827050170      -29.2261857807        3.5856730830  MEMB      47              0.0000000000
      6252        47  POPC      C218           26.9562237970      -29.0186431128        2.0635511742  MEMB      47              0.0000000000
      6253        47  POPC      H18R           26.5184276209      -29.5149397683        1.1711680482  MEMB      47              0.0000000000
      6254        47  POPC      H18S           27.5992390456      -29.7250019793        2.6309207750  MEMB      47              0.0000000000
      6255        47  POPC      H18T           27.6254194631      -28.2020490627        1.7176148424  MEMB      47              0.0000000000
      6256        47  POPC      C33            30.4958758514      -22.2703574450       12.1859574295  MEMB      47              0.0000000000
      6257        47  POPC      H3X            30.2723156323      -21.6485195341       11.2928394537  MEMB      47              0.0000000000
      6258        47  POPC      H3Y            29.6815721100      -23.0250710202       12.2264262419  MEMB      47              0.0000000000
      6259        47  POPC      C34            31.8459933711      -22.8785399163       12.0111794451  MEMB      47              0.0000000000
      6260        47  POPC      H4X            32.1135006798      -23.5614380912       12.8456917222  MEMB      47              0.0000000000
      6261        47  POPC      H4Y            32.5164596931      -21.9943183170       11.9568831336  MEMB      47              0.0000000000
      6262        47  POPC      C35            32.0541943574      -23.6185991424       10.7085724028  MEMB      47              0.0000000000
      6263        47  POPC      H5X            31.5360553706      -22.9770226488        9.9641040388  MEMB      47              0.0000000000
      6264        47  POPC      H5Y            31.5568546400      -24.6120486805       10.7142406751  MEMB      47              0.0000000000
      6265        47  POPC      C36            33.6324519114      -23.6486977662       10.3955860110  MEMB      47              0.0000000000
      6266        47  POPC      H6X            34.2394437501      -23.6420799637       11.3260901903  MEMB      47              0.0000000000
      6267        47  POPC      H6Y            33.9911952888      -22.7596050063        9.8342136717  MEMB      47              0.0000000000
      6268        47  POPC      C37            34.0478824635      -24.7700741474        9.3904216269  MEMB      47              0.0000000000
      6269        47  POPC      H7X            33.8300003371      -25.7253572694        9.9141416171  MEMB      47              0.0000000000
      6270        47  POPC      H7Y            35.1424240696      -24.7303752323        9.2040771990  MEMB      47              0.0000000000
      6271        47  POPC      C38            33.3514117672      -24.7904733911        8.0513441528  MEMB      47              0.0000000000
      6272        47  POPC      H8X            32.2689611956      -24.6150473889        8.2298033077  MEMB      47              0.0000000000
      6273        47  POPC      H8Y            33.4457259447      -25.6576478777        7.3632784578  MEMB      47              0.0000000000
      6274        47  POPC      C39            33.8948291207      -23.6395243378        7.2544293937  MEMB      47              0.0000000000
      6275        47  POPC      H9X            34.8866759829      -24.0092561861        6.9169993914  MEMB      47              0.0000000000
      6276        47  POPC      H9Y            34.0396384860      -22.7027973859        7.8339925692  MEMB      47              0.0000000000
      6277        47  POPC      C310           33.1716722457      -23.2931005234        5.9643446319  MEMB      47              0.0000000000
      6278        47  POPC      H10X           33.2476863856      -24.1835316176        5.3042877001  MEMB      47              0.0000000000
      6279        47  POPC      H10Y           33.7592768261      -22.4896040112        5.4709532826  MEMB      47              0.0000000000
      6280        47  POPC      C311           31.6944249321      -22.6899204727        6.1149398952  MEMB      47              0.0000000000
      6281        47  POPC      H11X           31.8373864953      -21.9421414736        6.9240807112  MEMB      47              0.0000000000
      6282        47  POPC      H11Y           30.9465086588      -23.4980516525        6.2628127830  MEMB      47              0.0000000000
      6283        47  POPC      C312           31.1223041171      -21.9574632580        4.8368076745  MEMB      47              0.0000000000
      6284        47  POPC      H12X           31.2761027544      -22.6972036823        4.0222827778  MEMB      47              0.0000000000
      6285        47  POPC      H12Y           31.7009938071      -21.0352902113        4.6153657737  MEMB      47              0.0000000000
      6286        47  POPC      C313           29.6200350684      -21.7871604191        4.8498446476  MEMB      47              0.0000000000
      6287        47  POPC      H13X           29.4558405126      -20.9719251293        5.5865611867  MEMB      47              0.0000000000
      6288        47  POPC      H13Y           29.2367707241      -22.7583006488        5.2297340566  MEMB      47              0.0000000000
      6289        47  POPC      C314           28.9541602157      -21.5265689650        3.4897042596  MEMB      47              0.0000000000
      6290        47  POPC      H14X           29.1447042402      -22.4040773196        2.8354925284  MEMB      47              0.0000000000
      6291        47  POPC      H14Y           29.4213414234      -20.7155819310        2.8910697517  MEMB      47              0.0000000000
      6292        47  POPC      C315           27.3533612254      -21.5468251551        3.4628656112  MEMB      47              0.0000000000
      6293        47  POPC      H15X           26.9870318253      -20.7706075036        4.1682803228  MEMB      47              0.0000000000
      6294        47  POPC      H15Y           27.0265010739      -22.5743451466        3.7306075601  MEMB      47              0.0000000000
      6295        47  POPC      C316           26.6939003713      -21.1081732552        2.1490176216  MEMB      47              0.0000000000
      6296        47  POPC      H16X           27.0425068049      -21.7065017189        1.2802262637  MEMB      47              0.0000000000
      6297        47  POPC      H16Y           26.8031258201      -20.0189078499        1.9595658790  MEMB      47              0.0000000000
      6298        47  POPC      H16Z           25.5938306064      -21.2625474459        2.1306811125  MEMB      47              0.0000000000
      6299        48  POPC      N               0.1741623309      -11.5519795697      -17.6708305019  MEMB      48              0.0000000000
      6300        48  POPC      C12             0.0064647323      -11.2275121702      -19.1909741736  MEMB      48              0.0000000000
      6301        48  POPC      H12A            0.3712247754      -12.1071792257      -19.7004210268  MEMB      48              0.0000000000
      6302        48  POPC      H12B            0.6462040704      -10.3733491273      -19.3569229774  MEMB      48              0.0000000000
      6303        48  POPC      C13            -0.1388173112      -10.2858456387      -16.8066291817  MEMB      48              0.0000000000
      6304        48  POPC      H13A           -0.0558329054      -10.6429895386      -15.7907740410  MEMB      48              0.0000000000
      6305        48  POPC      H13B            0.6743115965       -9.5862793633      -16.9324398746  MEMB      48              0.0000000000
      6306        48  POPC      H13C           -1.1194237661       -9.8838510174      -17.0145024138  MEMB      48              0.0000000000
      6307        48  POPC      C14            -0.5320525359      -12.8279407671      -17.2165169574  MEMB      48              0.0000000000
      6308        48  POPC      H14A           -1.5997180782      -12.6652285185      -17.2126431537  MEMB      48              0.0000000000
      6309        48  POPC      H14B           -0.4663149885      -13.6968877633      -17.8544900432  MEMB      48              0.0000000000
      6310        48  POPC      H14C           -0.0799818166      -13.1683635740      -16.2966557462  MEMB      48              0.0000000000
      6311        48  POPC      C15             1.7069113111      -11.6991890578      -17.5049665619  MEMB      48              0.0000000000
      6312        48  POPC      H15A            1.7880313970      -11.6175042301      -16.4311196499  MEMB      48              0.0000000000
      6313        48  POPC      H15B            2.2646668468      -10.8401650055      -17.8475834026  MEMB      48              0.0000000000
      6314        48  POPC      H15C            2.1260808161      -12.6775171993      -17.6881899928  MEMB      48              0.0000000000
      6315        48  POPC      C11            -1.4961979111      -10.8932393603      -19.6394881046  MEMB      48              0.0000000000
      6316        48  POPC      H11A           -2.2849398112      -11.6166850981      -19.3414386633  MEMB      48              0.0000000000
      6317        48  POPC      H11B           -1.5068912314      -10.8919351405      -20.7504358506  MEMB      48              0.0000000000
      6318        48  POPC      P              -2.2028747309       -8.4144874430      -20.2532718055  MEMB      48              0.0000000000
      6319        48  POPC      O13            -3.6838476853       -8.3206322391      -20.4180481779  MEMB      48              0.0000000000
      6320        48  POPC      O14            -1.4571078668       -8.5827905644      -21.5478809021  MEMB      48              0.0000000000
      6321        48  POPC      O12            -1.8108928585       -9.5339572679      -19.2532514339  MEMB      48              0.0000000000
      6322        48  POPC      O11            -1.7115951495       -7.1494212345      -19.4981422493  MEMB      48              0.0000000000
      6323        48  POPC      C1             -0.9136754967       -6.0961674795      -20.0083309210  MEMB      48              0.0000000000
      6324        48  POPC      HA             -1.6695512657       -5.5431823048      -20.6059763684  MEMB      48              0.0000000000
      6325        48  POPC      HB             -0.2072485334       -6.6525041154      -20.6608426459  MEMB      48              0.0000000000
      6326        48  POPC      C2             -0.0802027948       -5.4228444811      -18.9705915484  MEMB      48              0.0000000000
      6327        48  POPC      HS              0.6073282743       -4.7618376600      -19.5404087685  MEMB      48              0.0000000000
      6328        48  POPC      O21             0.7256513579       -6.4583397301      -18.3053372157  MEMB      48              0.0000000000
      6329        48  POPC      C21             1.7340031158       -5.9735955469      -17.5372651592  MEMB      48              0.0000000000
      6330        48  POPC      O22             2.0128696536       -4.7990951384      -17.3578566150  MEMB      48              0.0000000000
      6331        48  POPC      C22             2.5568716291       -7.1523239563      -16.9970255136  MEMB      48              0.0000000000
      6332        48  POPC      H2R             3.1144443711       -7.6933347724      -17.7912172378  MEMB      48              0.0000000000
      6333        48  POPC      H2S             1.8659375014       -7.9530387145      -16.6567507082  MEMB      48              0.0000000000
      6334        48  POPC      C3             -0.9760480837       -4.6847582659      -17.9115915636  MEMB      48              0.0000000000
      6335        48  POPC      HX             -1.5480879282       -3.8585470727      -18.3853704381  MEMB      48              0.0000000000
      6336        48  POPC      HY             -0.3418554336       -4.1019361998      -17.2098514130  MEMB      48              0.0000000000
      6337        48  POPC      O31            -2.0151452997       -5.5884092823      -17.3536915330  MEMB      48              0.0000000000
      6338        48  POPC      C31            -1.8310554495       -6.0848045874      -16.0957365153  MEMB      48              0.0000000000
      6339        48  POPC      O32            -1.1797375325       -5.5962671498      -15.1820346804  MEMB      48              0.0000000000
      6340        48  POPC      C32            -2.6186075747       -7.4118229394      -16.1622562554  MEMB      48              0.0000000000
      6341        48  POPC      H2X            -2.2110540341       -8.0337321169      -16.9877563098  MEMB      48              0.0000000000
      6342        48  POPC      H2Y            -3.6958831504       -7.2292294368      -16.3633979724  MEMB      48              0.0000000000
      6343        48  POPC      C23             3.6124982903       -6.6788422157      -15.9792374275  MEMB      48              0.0000000000
      6344        48  POPC      H3R             4.3303735543       -5.9064905727      -16.3291649764  MEMB      48              0.0000000000
      6345        48  POPC      H3S             4.2577618609       -7.5294218265      -15.6718773164  MEMB      48              0.0000000000
      6346        48  POPC      C24             3.0187839932       -6.1027306770      -14.6563317435  MEMB      48              0.0000000000
      6347        48  POPC      H4R             2.2614659746       -5.3044000797      -14.8094929728  MEMB      48              0.0000000000
      6348        48  POPC      H4S             3.8859853464       -5.6533580845      -14.1268533111  MEMB      48              0.0000000000
      6349        48  POPC      C25             2.4825649419       -7.1815806091      -13.7674582615  MEMB      48              0.0000000000
      6350        48  POPC      H5R             3.3707475552       -7.7087758283      -13.3581689167  MEMB      48              0.0000000000
      6351        48  POPC      H5S             1.8719207322       -7.9365595526      -14.3073118446  MEMB      48              0.0000000000
      6352        48  POPC      C26             1.4897800641       -6.6784849664      -12.8151513243  MEMB      48              0.0000000000
      6353        48  POPC      H6R             0.6184065933       -6.3471563219      -13.4195107134  MEMB      48              0.0000000000
      6354        48  POPC      H6S             1.7878789766       -5.8269772134      -12.1667743199  MEMB      48              0.0000000000
      6355        48  POPC      C27             0.9693248411       -7.7735474687      -11.8060788962  MEMB      48              0.0000000000
      6356        48  POPC      H7R             0.7034643494       -8.6909016690      -12.3736175715  MEMB      48              0.0000000000
      6357        48  POPC      H7S             0.0131332757       -7.5236813946      -11.2985499712  MEMB      48              0.0000000000
      6358        48  POPC      C28             1.9733366531       -8.3344760935      -10.7921891470  MEMB      48              0.0000000000
      6359        48  POPC      H8R             2.6653820979       -9.0096262944      -11.3395156526  MEMB      48              0.0000000000
      6360        48  POPC      H8S             1.4199037634       -8.9829503559      -10.0797891301  MEMB      48              0.0000000000
      6361        48  POPC      C29             2.7661995499       -7.3316679796       -9.9583378573  MEMB      48              0.0000000000
      6362        48  POPC      H91             3.5056180670       -6.7276951918      -10.5046689649  MEMB      48              0.0000000000
      6363        48  POPC      C210            2.6521528160       -7.1313387740       -8.6110980162  MEMB      48              0.0000000000
      6364        48  POPC      H101            3.3225966189       -6.4335821474       -8.0879916307  MEMB      48              0.0000000000
      6365        48  POPC      C211            1.6874420214       -7.9876253165       -7.8716360280  MEMB      48              0.0000000000
      6366        48  POPC      H11R            0.7664696251       -8.2674059884       -8.4264812398  MEMB      48              0.0000000000
      6367        48  POPC      H11S            1.1963158446       -7.4380965295       -7.0402910491  MEMB      48              0.0000000000
      6368        48  POPC      C212            2.3201373638       -9.2034086412       -7.2249963620  MEMB      48              0.0000000000
      6369        48  POPC      H12R            2.8251588464       -9.7324692348       -8.0612789780  MEMB      48              0.0000000000
      6370        48  POPC      H12S            1.5071556246       -9.8299727325       -6.7997916199  MEMB      48              0.0000000000
      6371        48  POPC      C213            3.3504368971       -9.0378607186       -6.1025832750  MEMB      48              0.0000000000
      6372        48  POPC      H13R            2.9396277894       -8.6709136095       -5.1377479568  MEMB      48              0.0000000000
      6373        48  POPC      H13S            4.1833382843       -8.3816874622       -6.4342950085  MEMB      48              0.0000000000
      6374        48  POPC      C214            4.0994305693      -10.4057454857       -5.7790923914  MEMB      48              0.0000000000
      6375        48  POPC      H14R            4.3676310400      -10.9874643604       -6.6868319623  MEMB      48              0.0000000000
      6376        48  POPC      H14S            3.3074884724      -11.0053347273       -5.2814560154  MEMB      48              0.0000000000
      6377        48  POPC      C215            5.2179907391      -10.3108247265       -4.8009799544  MEMB      48              0.0000000000
      6378        48  POPC      H15R            5.8905589369       -9.4742710410       -5.0875993148  MEMB      48              0.0000000000
      6379        48  POPC      H15S            5.8210033817      -11.2396990225       -4.8898023818  MEMB      48              0.0000000000
      6380        48  POPC      C216            4.8855822781       -9.9733365411       -3.3269002646  MEMB      48              0.0000000000
      6381        48  POPC      H16R            4.2814367496       -9.0411242557       -3.3093020090  MEMB      48              0.0000000000
      6382        48  POPC      H16S            5.8043021885       -9.7821549558       -2.7321519526  MEMB      48              0.0000000000
      6383        48  POPC      C217            4.1456084454      -11.0350479701       -2.5788120031  MEMB      48              0.0000000000
      6384        48  POPC      H17R            4.5070391384      -12.0385269694       -2.8898095466  MEMB      48              0.0000000000
      6385        48  POPC      H17S            3.1084304358      -10.8443326454       -2.9283986941  MEMB      48              0.0000000000
      6386        48  POPC      C218            4.0897394979      -10.8628757943       -1.0784763732  MEMB      48              0.0000000000
      6387        48  POPC      H18R            3.3595623268      -11.5011881668       -0.5365177946  MEMB      48              0.0000000000
      6388        48  POPC      H18S            3.8379388245       -9.8163525810       -0.8033309907  MEMB      48              0.0000000000
      6389        48  POPC      H18T            5.1237652201      -11.0048096271       -0.6977314372  MEMB      48              0.0000000000
      6390        48  POPC      C33            -2.4278076230       -8.1293768823      -14.8354730531  MEMB      48              0.0000000000
      6391        48  POPC      H3X            -1.3871366790       -8.4859633805      -14.6800013039  MEMB      48              0.0000000000
      6392        48  POPC      H3Y            -3.0694226118       -9.0302257173      -14.9409358769  MEMB      48              0.0000000000
      6393        48  POPC      C34            -2.9884653334       -7.2990654777      -13.7550081618  MEMB      48              0.0000000000
      6394        48  POPC      H4X            -3.7900029094       -6.6437510030      -14.1580238655  MEMB      48              0.0000000000
      6395        48  POPC      H4Y            -2.2249447746       -6.6159910779      -13.3251634055  MEMB      48              0.0000000000
      6396        48  POPC      C35            -3.6118389680       -8.1982491306      -12.7210693750  MEMB      48              0.0000000000
      6397        48  POPC      H5X            -2.8152620531       -8.8868909818      -12.3667266127  MEMB      48              0.0000000000
      6398        48  POPC      H5Y            -4.5109471681       -8.7028206048      -13.1349930135  MEMB      48              0.0000000000
      6399        48  POPC      C36            -4.1607109643       -7.5494736243      -11.4042701806  MEMB      48              0.0000000000
      6400        48  POPC      H6X            -4.8778544575       -6.7735450548      -11.7477258883  MEMB      48              0.0000000000
      6401        48  POPC      H6Y            -3.3330328970       -6.9937321903      -10.9139425453  MEMB      48              0.0000000000
      6402        48  POPC      C37            -4.7748676227       -8.5707810675      -10.4423756564  MEMB      48              0.0000000000
      6403        48  POPC      H7X            -5.4266681151       -9.2934066274      -10.9783699587  MEMB      48              0.0000000000
      6404        48  POPC      H7Y            -5.3184251602       -7.9615593449       -9.6889068280  MEMB      48              0.0000000000
      6405        48  POPC      C38            -3.6972106706       -9.3573993019       -9.6212479791  MEMB      48              0.0000000000
      6406        48  POPC      H8X            -3.0077263935       -9.6885088093      -10.4270386191  MEMB      48              0.0000000000
      6407        48  POPC      H8Y            -4.2131383374      -10.2604431037       -9.2305417172  MEMB      48              0.0000000000
      6408        48  POPC      C39            -2.8244690063       -8.5634986971       -8.5793901251  MEMB      48              0.0000000000
      6409        48  POPC      H9X            -2.3960039928       -7.6205259951       -8.9813117948  MEMB      48              0.0000000000
      6410        48  POPC      H9Y            -1.9905329598       -9.2075367287       -8.2271295539  MEMB      48              0.0000000000
      6411        48  POPC      C310           -3.6650309255       -8.0829944977       -7.2983557931  MEMB      48              0.0000000000
      6412        48  POPC      H10X           -4.3979005857       -8.8158263335       -6.8981307061  MEMB      48              0.0000000000
      6413        48  POPC      H10Y           -4.2937094306       -7.1947590094       -7.5222349632  MEMB      48              0.0000000000
      6414        48  POPC      C311           -2.6828151272       -7.6191257765       -6.1976329491  MEMB      48              0.0000000000
      6415        48  POPC      H11X           -1.9804943777       -6.9325452535       -6.7169347465  MEMB      48              0.0000000000
      6416        48  POPC      H11Y           -2.1310317770       -8.4732474803       -5.7500481407  MEMB      48              0.0000000000
      6417        48  POPC      C312           -3.3806084442       -6.9605006539       -4.8947531895  MEMB      48              0.0000000000
      6418        48  POPC      H12X           -4.0270350210       -7.7440851537       -4.4448098520  MEMB      48              0.0000000000
      6419        48  POPC      H12Y           -4.1139273347       -6.2189139048       -5.2776544814  MEMB      48              0.0000000000
      6420        48  POPC      C313           -2.3436174651       -6.2870321852       -4.0139380575  MEMB      48              0.0000000000
      6421        48  POPC      H13X           -1.6106412727       -5.6619745227       -4.5674446579  MEMB      48              0.0000000000
      6422        48  POPC      H13Y           -1.7960210259       -7.2068920187       -3.7167566480  MEMB      48              0.0000000000
      6423        48  POPC      C314           -2.7792560600       -5.4860725627       -2.7711212986  MEMB      48              0.0000000000
      6424        48  POPC      H14X           -3.2393454293       -4.5431096912       -3.1364417243  MEMB      48              0.0000000000
      6425        48  POPC      H14Y           -1.8489916238       -5.1366239060       -2.2743173032  MEMB      48              0.0000000000
      6426        48  POPC      C315           -3.7426425977       -6.1726132511       -1.7991337988  MEMB      48              0.0000000000
      6427        48  POPC      H15X           -4.6643979253       -6.3688778133       -2.3874942538  MEMB      48              0.0000000000
      6428        48  POPC      H15Y           -3.9653291675       -5.5162862376       -0.9308227955  MEMB      48              0.0000000000
      6429        48  POPC      C316           -3.2188177681       -7.4543909503       -1.0825168724  MEMB      48              0.0000000000
      6430        48  POPC      H16X           -2.1718547134       -7.2564777887       -0.7678443499  MEMB      48              0.0000000000
      6431        48  POPC      H16Y           -3.0960054549       -8.3177237917       -1.7709169429  MEMB      48              0.0000000000
      6432        48  POPC      H16Z           -3.8555025622       -7.7190156010       -0.2113535805  MEMB      48              0.0000000000
      6433        49  POPC      N             -14.3366190426        2.4841863012      -20.4294675665  MEMB      49              0.0000000000
      6434        49  POPC      C12           -14.2607900853        3.8871248147      -20.9383913057  MEMB      49              0.0000000000
      6435        49  POPC      H12A          -14.9671829327        3.9156693313      -21.7548436748  MEMB      49              0.0000000000
      6436        49  POPC      H12B          -13.2436485494        3.9024547720      -21.3011421786  MEMB      49              0.0000000000
      6437        49  POPC      C13           -13.9083270249        1.5157910818      -21.4751686066  MEMB      49              0.0000000000
      6438        49  POPC      H13A          -14.5034128006        1.6196761714      -22.3704231235  MEMB      49              0.0000000000
      6439        49  POPC      H13B          -12.8423403474        1.6120816834      -21.6193922247  MEMB      49              0.0000000000
      6440        49  POPC      H13C          -14.0918498421        0.5105286320      -21.1256451699  MEMB      49              0.0000000000
      6441        49  POPC      C14           -13.4001276020        2.3318880047      -19.3066680017  MEMB      49              0.0000000000
      6442        49  POPC      H14A          -13.3483185567        1.3828121168      -18.7938608652  MEMB      49              0.0000000000
      6443        49  POPC      H14B          -12.4040185702        2.4576341858      -19.7046059003  MEMB      49              0.0000000000
      6444        49  POPC      H14C          -13.6251326019        3.1671437948      -18.6600457466  MEMB      49              0.0000000000
      6445        49  POPC      C15           -15.7979686457        2.0545197772      -19.9210277018  MEMB      49              0.0000000000
      6446        49  POPC      H15A          -16.0787723018        2.7994045294      -19.1911674609  MEMB      49              0.0000000000
      6447        49  POPC      H15B          -15.8306573959        1.0704329942      -19.4772881423  MEMB      49              0.0000000000
      6448        49  POPC      H15C          -16.5050377996        2.1160763998      -20.7350694864  MEMB      49              0.0000000000
      6449        49  POPC      C11           -14.5659669944        5.1154633070      -19.9779329869  MEMB      49              0.0000000000
      6450        49  POPC      H11A          -15.6596928433        5.0885803197      -19.7846401800  MEMB      49              0.0000000000
      6451        49  POPC      H11B          -14.3427750517        6.0808194803      -20.4805200138  MEMB      49              0.0000000000
      6452        49  POPC      P             -14.3739030882        5.2633126789      -17.3308490079  MEMB      49              0.0000000000
      6453        49  POPC      O13           -13.9468842943        6.5830587044      -16.8695505165  MEMB      49              0.0000000000
      6454        49  POPC      O14           -14.0007725468        4.1178910736      -16.4918285203  MEMB      49              0.0000000000
      6455        49  POPC      O12           -13.8481285649        4.9863017726      -18.8174195601  MEMB      49              0.0000000000
      6456        49  POPC      O11           -15.9076944685        5.2742911887      -17.4416961765  MEMB      49              0.0000000000
      6457        49  POPC      C1            -16.8130459503        4.1727507939      -17.2040022273  MEMB      49              0.0000000000
      6458        49  POPC      HA            -16.2924218316        3.2022529035      -17.0576967078  MEMB      49              0.0000000000
      6459        49  POPC      HB            -17.4335502526        4.1279107096      -18.1244830881  MEMB      49              0.0000000000
      6460        49  POPC      C2            -17.6310683872        4.4695391618      -15.9079421532  MEMB      49              0.0000000000
      6461        49  POPC      HS            -18.3749290697        5.2874832672      -16.0173037206  MEMB      49              0.0000000000
      6462        49  POPC      O21           -16.7254941467        4.9296884251      -14.8162264835  MEMB      49              0.0000000000
      6463        49  POPC      C21           -17.3223903465        5.6416791117      -13.8407935516  MEMB      49              0.0000000000
      6464        49  POPC      O22           -18.5828001435        5.7347086674      -13.6839996679  MEMB      49              0.0000000000
      6465        49  POPC      C22           -16.2251737734        6.1448293696      -12.8589474219  MEMB      49              0.0000000000
      6466        49  POPC      H2R           -15.7562477468        5.2728066980      -12.3549578394  MEMB      49              0.0000000000
      6467        49  POPC      H2S           -16.6661716554        6.6868395698      -11.9951961657  MEMB      49              0.0000000000
      6468        49  POPC      C3            -18.3069730003        3.0711313719      -15.5129863956  MEMB      49              0.0000000000
      6469        49  POPC      HX            -18.9857263342        2.7969066702      -16.3486993528  MEMB      49              0.0000000000
      6470        49  POPC      HY            -18.9431576645        3.2203767875      -14.6144784882  MEMB      49              0.0000000000
      6471        49  POPC      O31           -17.1805389218        2.1540102674      -15.3321043406  MEMB      49              0.0000000000
      6472        49  POPC      C31           -17.5995946143        1.0567551813      -14.7000194563  MEMB      49              0.0000000000
      6473        49  POPC      O32           -18.7602936573        0.7918422452      -14.4789128208  MEMB      49              0.0000000000
      6474        49  POPC      C32           -16.3334247964        0.3040543171      -14.2698327203  MEMB      49              0.0000000000
      6475        49  POPC      H2X           -15.4200188345        0.3911487725      -14.8962711349  MEMB      49              0.0000000000
      6476        49  POPC      H2Y           -16.5887943137       -0.7771607196      -14.2788692917  MEMB      49              0.0000000000
      6477        49  POPC      C23           -15.0974107723        6.8818101181      -13.6197636619  MEMB      49              0.0000000000
      6478        49  POPC      H3R           -15.4727975964        7.6638525720      -14.3138931947  MEMB      49              0.0000000000
      6479        49  POPC      H3S           -14.5269509434        6.1505909028      -14.2314951450  MEMB      49              0.0000000000
      6480        49  POPC      C24           -14.1308764943        7.5630833749      -12.5782369686  MEMB      49              0.0000000000
      6481        49  POPC      H4R           -14.6886183775        8.1270497416      -11.8002995187  MEMB      49              0.0000000000
      6482        49  POPC      H4S           -13.7111489204        8.4368671259      -13.1210551592  MEMB      49              0.0000000000
      6483        49  POPC      C25           -13.1009288107        6.5726531175      -11.9461516396  MEMB      49              0.0000000000
      6484        49  POPC      H5R           -12.7864630581        5.7744718519      -12.6520828780  MEMB      49              0.0000000000
      6485        49  POPC      H5S           -13.6495371269        6.1354809259      -11.0846238001  MEMB      49              0.0000000000
      6486        49  POPC      C26           -11.9186139775        7.3528196750      -11.3081191050  MEMB      49              0.0000000000
      6487        49  POPC      H6R           -12.1517432283        8.3311284612      -10.8360136831  MEMB      49              0.0000000000
      6488        49  POPC      H6S           -11.2594007944        7.5774834948      -12.1737317940  MEMB      49              0.0000000000
      6489        49  POPC      C27           -11.0025460005        6.5814980806      -10.3369510832  MEMB      49              0.0000000000
      6490        49  POPC      H7R           -10.0952962033        7.2081191441      -10.2006977941  MEMB      49              0.0000000000
      6491        49  POPC      H7S           -10.5971129307        5.6948677091      -10.8697097739  MEMB      49              0.0000000000
      6492        49  POPC      C28           -11.6764928655        6.0785425749       -9.0771748509  MEMB      49              0.0000000000
      6493        49  POPC      H8R           -11.1074600070        5.3545345687       -8.4556161201  MEMB      49              0.0000000000
      6494        49  POPC      H8S           -12.5721097902        5.5207905750       -9.4251747303  MEMB      49              0.0000000000
      6495        49  POPC      C29           -11.9931526077        7.1521582328       -8.1111538134  MEMB      49              0.0000000000
      6496        49  POPC      H91           -11.1536568780        7.5074080398       -7.4954873253  MEMB      49              0.0000000000
      6497        49  POPC      C210          -13.1917734639        7.7144637079       -8.0061661695  MEMB      49              0.0000000000
      6498        49  POPC      H101          -13.2606494549        8.5800799356       -7.3309141794  MEMB      49              0.0000000000
      6499        49  POPC      C211          -14.5100081504        7.4055471374       -8.7205437001  MEMB      49              0.0000000000
      6500        49  POPC      H11R          -14.4148104242        6.5138176332       -9.3763456984  MEMB      49              0.0000000000
      6501        49  POPC      H11S          -14.6969613962        8.3250749597       -9.3153861829  MEMB      49              0.0000000000
      6502        49  POPC      C212          -15.6250685844        6.9800889490       -7.7285269116  MEMB      49              0.0000000000
      6503        49  POPC      H12R          -15.2313815660        6.1199600496       -7.1458518039  MEMB      49              0.0000000000
      6504        49  POPC      H12S          -16.5466426840        6.6697849438       -8.2658664287  MEMB      49              0.0000000000
      6505        49  POPC      C213          -16.1312648244        8.0204093328       -6.7371889858  MEMB      49              0.0000000000
      6506        49  POPC      H13R          -16.1124219491        9.0302508038       -7.1999915720  MEMB      49              0.0000000000
      6507        49  POPC      H13S          -15.3631908271        8.1459337435       -5.9443290979  MEMB      49              0.0000000000
      6508        49  POPC      C214          -17.4507694175        7.6688639376       -5.9994356690  MEMB      49              0.0000000000
      6509        49  POPC      H14R          -18.2888852262        7.7327577843       -6.7259346705  MEMB      49              0.0000000000
      6510        49  POPC      H14S          -17.6299537676        8.4568718194       -5.2370334052  MEMB      49              0.0000000000
      6511        49  POPC      C215          -17.4362449961        6.2366679848       -5.3535037386  MEMB      49              0.0000000000
      6512        49  POPC      H15R          -17.3997495182        5.4959082747       -6.1807060863  MEMB      49              0.0000000000
      6513        49  POPC      H15S          -18.4141585615        6.1382014033       -4.8355170639  MEMB      49              0.0000000000
      6514        49  POPC      C216          -16.4617176138        6.0280041651       -4.2634646066  MEMB      49              0.0000000000
      6515        49  POPC      H16R          -15.4509738531        6.2146571689       -4.6852212775  MEMB      49              0.0000000000
      6516        49  POPC      H16S          -16.4606804360        4.9597391971       -3.9582921228  MEMB      49              0.0000000000
      6517        49  POPC      C217          -16.5364481686        6.7880950333       -2.8967022355  MEMB      49              0.0000000000
      6518        49  POPC      H17R          -16.2980925638        7.8625886900       -3.0482634511  MEMB      49              0.0000000000
      6519        49  POPC      H17S          -15.7460776734        6.4172498371       -2.2095997171  MEMB      49              0.0000000000
      6520        49  POPC      C218          -17.8935009404        6.6983598453       -2.1389186760  MEMB      49              0.0000000000
      6521        49  POPC      H18R          -18.1033761074        5.6242258704       -1.9478446867  MEMB      49              0.0000000000
      6522        49  POPC      H18S          -18.8228852545        7.1244771667       -2.5736472815  MEMB      49              0.0000000000
      6523        49  POPC      H18T          -17.7980431469        7.3745368338       -1.2625664849  MEMB      49              0.0000000000
      6524        49  POPC      C33           -15.9141403851        0.6411756173      -12.7755529541  MEMB      49              0.0000000000
      6525        49  POPC      H3X           -15.2533289612       -0.1709424704      -12.4039163175  MEMB      49              0.0000000000
      6526        49  POPC      H3Y           -16.7855436817        0.7490861831      -12.0948675586  MEMB      49              0.0000000000
      6527        49  POPC      C34           -15.0688151485        1.9729214975      -12.7208570969  MEMB      49              0.0000000000
      6528        49  POPC      H4X           -15.6424297796        2.8750468555      -13.0232756433  MEMB      49              0.0000000000
      6529        49  POPC      H4Y           -14.1967406076        1.8896593314      -13.4041391936  MEMB      49              0.0000000000
      6530        49  POPC      C35           -14.4041734237        2.3038496615      -11.3333334085  MEMB      49              0.0000000000
      6531        49  POPC      H5X           -13.9066342942        3.2969677238      -11.3111468637  MEMB      49              0.0000000000
      6532        49  POPC      H5Y           -13.5549327240        1.5999026454      -11.2007823793  MEMB      49              0.0000000000
      6533        49  POPC      C36           -15.3042720916        2.2836146053      -10.0555190455  MEMB      49              0.0000000000
      6534        49  POPC      H6X           -15.5286150135        1.2015620743       -9.9408301429  MEMB      49              0.0000000000
      6535        49  POPC      H6Y           -16.2191143492        2.8675300989      -10.2930636439  MEMB      49              0.0000000000
      6536        49  POPC      C37           -14.6168698187        2.8501525510       -8.8103816766  MEMB      49              0.0000000000
      6537        49  POPC      H7X           -15.3917905116        2.6699405152       -8.0349181845  MEMB      49              0.0000000000
      6538        49  POPC      H7Y           -14.4215191601        3.9414955714       -8.8820021939  MEMB      49              0.0000000000
      6539        49  POPC      C38           -13.3218624160        2.1485352650       -8.4251377125  MEMB      49              0.0000000000
      6540        49  POPC      H8X           -12.5462078822        2.2543708860       -9.2134779581  MEMB      49              0.0000000000
      6541        49  POPC      H8Y           -13.4039741289        1.0465147058       -8.3105550120  MEMB      49              0.0000000000
      6542        49  POPC      C39           -12.6331410442        2.8776308665       -7.2622569210  MEMB      49              0.0000000000
      6543        49  POPC      H9X           -13.1430036679        3.8630169552       -7.2041585164  MEMB      49              0.0000000000
      6544        49  POPC      H9Y           -11.5405592347        2.9785476693       -7.4366178339  MEMB      49              0.0000000000
      6545        49  POPC      C310          -12.6957036756        2.0866360342       -5.8925201868  MEMB      49              0.0000000000
      6546        49  POPC      H10X          -11.8426985004        2.4496725471       -5.2802227927  MEMB      49              0.0000000000
      6547        49  POPC      H10Y          -12.6497288756        1.0020143666       -6.1287470970  MEMB      49              0.0000000000
      6548        49  POPC      C311          -14.0241979895        2.3470877591       -5.1455957236  MEMB      49              0.0000000000
      6549        49  POPC      H11X          -14.8758158045        1.9967677581       -5.7671620427  MEMB      49              0.0000000000
      6550        49  POPC      H11Y          -14.1567504569        3.4407724869       -5.0020529792  MEMB      49              0.0000000000
      6551        49  POPC      C312          -14.1086700992        1.6255470079       -3.7529506946  MEMB      49              0.0000000000
      6552        49  POPC      H12X          -13.0523776997        1.7014969538       -3.4170953698  MEMB      49              0.0000000000
      6553        49  POPC      H12Y          -14.1117215435        0.5180366253       -3.8408854254  MEMB      49              0.0000000000
      6554        49  POPC      C313          -15.1516290462        2.0915128695       -2.6934666562  MEMB      49              0.0000000000
      6555        49  POPC      H13X          -14.9616119150        3.1560636855       -2.4386214617  MEMB      49              0.0000000000
      6556        49  POPC      H13Y          -14.9434091094        1.5302866512       -1.7575240225  MEMB      49              0.0000000000
      6557        49  POPC      C314          -16.6086899324        1.9020247423       -3.1344429368  MEMB      49              0.0000000000
      6558        49  POPC      H14X          -16.6479187948        0.7918805320       -3.1154213618  MEMB      49              0.0000000000
      6559        49  POPC      H14Y          -16.7996801156        2.2394978680       -4.1755743141  MEMB      49              0.0000000000
      6560        49  POPC      C315          -17.7032119879        2.5179410229       -2.2042732550  MEMB      49              0.0000000000
      6561        49  POPC      H15X          -17.6934346162        3.6074613349       -2.4214612669  MEMB      49              0.0000000000
      6562        49  POPC      H15Y          -17.5715861307        2.5086609133       -1.1011360613  MEMB      49              0.0000000000
      6563        49  POPC      C316          -19.0504546957        1.9944935663       -2.5777363132  MEMB      49              0.0000000000
      6564        49  POPC      H16X          -18.9861713322        0.8899047795       -2.6780969434  MEMB      49              0.0000000000
      6565        49  POPC      H16Y          -19.2304338824        2.5670206089       -3.5126921698  MEMB      49              0.0000000000
      6566        49  POPC      H16Z          -19.8815607738        2.2449673134       -1.8843050470  MEMB      49              0.0000000000
      6567        50  POPC      N              -2.0565505376       11.2449112017      -21.0513989833  MEMB      50              0.0000000000
      6568        50  POPC      C12            -1.0209427905       10.5620778861      -20.1779640981  MEMB      50              0.0000000000
      6569        50  POPC      H12A           -0.3300638776       10.0896371224      -20.8605224508  MEMB      50              0.0000000000
      6570        50  POPC      H12B           -1.4255608403        9.7298808946      -19.6210687343  MEMB      50              0.0000000000
      6571        50  POPC      C13            -3.3410041541       11.2177664933      -20.2918955091  MEMB      50              0.0000000000
      6572        50  POPC      H13A           -3.2976081997       11.8467679629      -19.4150409405  MEMB      50              0.0000000000
      6573        50  POPC      H13B           -4.1852715616       11.5318382640      -20.8876901789  MEMB      50              0.0000000000
      6574        50  POPC      H13C           -3.4454197329       10.1790097848      -20.0153418013  MEMB      50              0.0000000000
      6575        50  POPC      C14            -1.6470839510       12.6608425687      -21.3805192065  MEMB      50              0.0000000000
      6576        50  POPC      H14A           -1.2287499237       13.2082953532      -20.5488388450  MEMB      50              0.0000000000
      6577        50  POPC      H14B           -0.8816159313       12.5134517991      -22.1280048268  MEMB      50              0.0000000000
      6578        50  POPC      H14C           -2.4897101696       13.2164845569      -21.7647628018  MEMB      50              0.0000000000
      6579        50  POPC      C15            -2.2689761328       10.4143100545      -22.4178200891  MEMB      50              0.0000000000
      6580        50  POPC      H15A           -2.2712205484        9.3573592574      -22.1958967943  MEMB      50              0.0000000000
      6581        50  POPC      H15B           -1.4327227733       10.7123845248      -23.0328258867  MEMB      50              0.0000000000
      6582        50  POPC      H15C           -3.2356819095       10.6862842372      -22.8151990364  MEMB      50              0.0000000000
      6583        50  POPC      C11            -0.1833823094       11.4189791807      -19.2441562288  MEMB      50              0.0000000000
      6584        50  POPC      H11A            0.2707712641       12.2235955771      -19.8611311180  MEMB      50              0.0000000000
      6585        50  POPC      H11B            0.7091179658       10.8410651400      -18.9220080393  MEMB      50              0.0000000000
      6586        50  POPC      P              -1.1748962105       10.8979372878      -16.9050553842  MEMB      50              0.0000000000
      6587        50  POPC      O13             0.0227613331       10.5910941698      -16.0853047577  MEMB      50              0.0000000000
      6588        50  POPC      O14            -1.9716270695        9.7633654292      -17.3419238478  MEMB      50              0.0000000000
      6589        50  POPC      O12            -0.9104361667       11.8620534283      -18.0942472632  MEMB      50              0.0000000000
      6590        50  POPC      O11            -2.2186509733       11.7008973662      -16.0097146849  MEMB      50              0.0000000000
      6591        50  POPC      C1             -3.4786165528       12.0532456502      -16.6203007294  MEMB      50              0.0000000000
      6592        50  POPC      HA             -4.0219665014       11.1861019633      -17.0529133232  MEMB      50              0.0000000000
      6593        50  POPC      HB             -3.2612221303       12.8236618207      -17.3907031089  MEMB      50              0.0000000000
      6594        50  POPC      C2             -4.4836959711       12.6505441503      -15.5703582526  MEMB      50              0.0000000000
      6595        50  POPC      HS             -5.3051351500       13.1196065026      -16.1530583848  MEMB      50              0.0000000000
      6596        50  POPC      O21            -3.8755039814       13.6303406096      -14.7849987595  MEMB      50              0.0000000000
      6597        50  POPC      C21            -3.1722791060       14.7064701001      -15.3425279809  MEMB      50              0.0000000000
      6598        50  POPC      O22            -3.1909232470       15.1035976695      -16.4925996835  MEMB      50              0.0000000000
      6599        50  POPC      C22            -2.4396128651       15.4262819811      -14.2130681694  MEMB      50              0.0000000000
      6600        50  POPC      H2R            -2.1878146279       14.6956740920      -13.4148635863  MEMB      50              0.0000000000
      6601        50  POPC      H2S            -3.0807823080       16.1852124137      -13.7158288210  MEMB      50              0.0000000000
      6602        50  POPC      C3             -5.0014421128       11.5460147291      -14.6005804076  MEMB      50              0.0000000000
      6603        50  POPC      HX             -5.5360118994       10.7232516454      -15.1217491311  MEMB      50              0.0000000000
      6604        50  POPC      HY             -5.9213286523       12.0559104680      -14.2426188789  MEMB      50              0.0000000000
      6605        50  POPC      O31            -3.9037416812       11.1075776640      -13.7609069625  MEMB      50              0.0000000000
      6606        50  POPC      C31            -3.4927435667        9.7886095158      -13.6963705847  MEMB      50              0.0000000000
      6607        50  POPC      O32            -4.1299257956        8.7839258549      -13.9427091417  MEMB      50              0.0000000000
      6608        50  POPC      C32            -2.0085389604        9.7088844706      -13.4295778490  MEMB      50              0.0000000000
      6609        50  POPC      H2X            -1.5446154649       10.6623338027      -13.7612862385  MEMB      50              0.0000000000
      6610        50  POPC      H2Y            -1.6324273795        8.9073771127      -14.1007314521  MEMB      50              0.0000000000
      6611        50  POPC      C23            -1.2111081199       16.0954582173      -14.8700046461  MEMB      50              0.0000000000
      6612        50  POPC      H3R            -0.6884582603       16.7354735876      -14.1273484005  MEMB      50              0.0000000000
      6613        50  POPC      H3S            -1.4120899404       16.8824107111      -15.6280503604  MEMB      50              0.0000000000
      6614        50  POPC      C24            -0.1129508519       15.0361951513      -15.3716788238  MEMB      50              0.0000000000
      6615        50  POPC      H4R             0.7348809223       15.6114113747      -15.8013631739  MEMB      50              0.0000000000
      6616        50  POPC      H4S            -0.5628057240       14.4962654468      -16.2321596950  MEMB      50              0.0000000000
      6617        50  POPC      C25             0.4897696821       14.1135162018      -14.3055044743  MEMB      50              0.0000000000
      6618        50  POPC      H5R            -0.2345799445       13.3315789553      -13.9921156221  MEMB      50              0.0000000000
      6619        50  POPC      H5S             0.5968918253       14.7429519312      -13.3962979152  MEMB      50              0.0000000000
      6620        50  POPC      C26             1.8758787970       13.4639284225      -14.6115355208  MEMB      50              0.0000000000
      6621        50  POPC      H6R             2.4305991629       14.2225001839      -15.2041358934  MEMB      50              0.0000000000
      6622        50  POPC      H6S             1.7149517068       12.6215954940      -15.3178633628  MEMB      50              0.0000000000
      6623        50  POPC      C27             2.6137008266       12.8905699134      -13.3714868728  MEMB      50              0.0000000000
      6624        50  POPC      H7R             2.9653399498       13.6866360496      -12.6808714480  MEMB      50              0.0000000000
      6625        50  POPC      H7S             3.4986517883       12.4492070741      -13.8778284477  MEMB      50              0.0000000000
      6626        50  POPC      C28             1.7872823299       11.8908983630      -12.6562656942  MEMB      50              0.0000000000
      6627        50  POPC      H8R             1.1962965090       11.2985130968      -13.3871123392  MEMB      50              0.0000000000
      6628        50  POPC      H8S             1.1291668169       12.4464449313      -11.9544305051  MEMB      50              0.0000000000
      6629        50  POPC      C29             2.6629380318       10.9709863362      -11.7734772649  MEMB      50              0.0000000000
      6630        50  POPC      H91             3.2177443695       10.2029442236      -12.3323163071  MEMB      50              0.0000000000
      6631        50  POPC      C210            3.0291804256       11.1244469938      -10.5002647391  MEMB      50              0.0000000000
      6632        50  POPC      H101            3.8248877026       10.3896695009      -10.3080360319  MEMB      50              0.0000000000
      6633        50  POPC      C211            2.6865020595       12.2510585652       -9.5435899998  MEMB      50              0.0000000000
      6634        50  POPC      H11R            2.2610350513       13.1610200950      -10.0182150251  MEMB      50              0.0000000000
      6635        50  POPC      H11S            3.6341208931       12.6520034530       -9.1245637606  MEMB      50              0.0000000000
      6636        50  POPC      C212            1.7326191785       11.9077798328       -8.3851641918  MEMB      50              0.0000000000
      6637        50  POPC      H12R            0.7205584216       11.5956309141       -8.7207483631  MEMB      50              0.0000000000
      6638        50  POPC      H12S            1.7494016066       12.8458239805       -7.7900913773  MEMB      50              0.0000000000
      6639        50  POPC      C213            2.3153389858       10.7180825301       -7.5205424929  MEMB      50              0.0000000000
      6640        50  POPC      H13R            3.3840044006       11.0217793251       -7.5139793286  MEMB      50              0.0000000000
      6641        50  POPC      H13S            2.1728691184        9.7858142810       -8.1078237180  MEMB      50              0.0000000000
      6642        50  POPC      C214            1.7938034044       10.5067898226       -6.0748339363  MEMB      50              0.0000000000
      6643        50  POPC      H14R            2.4504439268        9.6832604380       -5.7213610201  MEMB      50              0.0000000000
      6644        50  POPC      H14S            0.7352909396       10.1761305324       -6.1421889950  MEMB      50              0.0000000000
      6645        50  POPC      C215            1.7241851425       11.7655301368       -5.1971306411  MEMB      50              0.0000000000
      6646        50  POPC      H15R            1.0682935808       12.4370445492       -5.7914337972  MEMB      50              0.0000000000
      6647        50  POPC      H15S            2.7493207951       12.1937910330       -5.1939132673  MEMB      50              0.0000000000
      6648        50  POPC      C216            1.2572934180       11.5582825771       -3.7175618148  MEMB      50              0.0000000000
      6649        50  POPC      H16R            0.2285101098       11.1410469939       -3.6746634594  MEMB      50              0.0000000000
      6650        50  POPC      H16S            1.3273610170       12.5810339013       -3.2893187613  MEMB      50              0.0000000000
      6651        50  POPC      C217            2.2428214638       10.5938103034       -2.9916081697  MEMB      50              0.0000000000
      6652        50  POPC      H17R            3.2676891920       11.0175793697       -2.9253705692  MEMB      50              0.0000000000
      6653        50  POPC      H17S            2.2824569774        9.7546148071       -3.7185887863  MEMB      50              0.0000000000
      6654        50  POPC      C218            1.9159004838       10.0807133196       -1.5730514077  MEMB      50              0.0000000000
      6655        50  POPC      H18R            2.0585171784       10.9001063813       -0.8364533365  MEMB      50              0.0000000000
      6656        50  POPC      H18S            2.4776068226        9.1490989605       -1.3474368221  MEMB      50              0.0000000000
      6657        50  POPC      H18T            0.8411453873        9.8092139458       -1.4988208195  MEMB      50              0.0000000000
      6658        50  POPC      C33            -1.5822801870        9.2133600605      -11.9986302528  MEMB      50              0.0000000000
      6659        50  POPC      H3X            -0.4849308248        9.0932546806      -12.1240097464  MEMB      50              0.0000000000
      6660        50  POPC      H3Y            -2.1137227117        8.2495654198      -11.8470068865  MEMB      50              0.0000000000
      6661        50  POPC      C34            -1.8229892444       10.1856676473      -10.8731959834  MEMB      50              0.0000000000
      6662        50  POPC      H4X            -1.9678407004       11.2011469577      -11.2999755726  MEMB      50              0.0000000000
      6663        50  POPC      H4Y            -0.8848226105       10.2870795420      -10.2867834271  MEMB      50              0.0000000000
      6664        50  POPC      C35            -3.0692115043        9.8495308647       -9.9714376587  MEMB      50              0.0000000000
      6665        50  POPC      H5X            -2.9155480873        8.8644482661       -9.4812125937  MEMB      50              0.0000000000
      6666        50  POPC      H5Y            -3.9450730907        9.6933038176      -10.6368553515  MEMB      50              0.0000000000
      6667        50  POPC      C36            -3.3149598896       10.9980238156       -8.9688559488  MEMB      50              0.0000000000
      6668        50  POPC      H6X            -3.4284312253       11.8614630871       -9.6587238865  MEMB      50              0.0000000000
      6669        50  POPC      H6Y            -2.4932128913       11.2115523410       -8.2522955712  MEMB      50              0.0000000000
      6670        50  POPC      C37            -4.5380122556       10.7480815266       -8.0749873367  MEMB      50              0.0000000000
      6671        50  POPC      H7X            -4.6754802934        9.6507050461       -7.9692105563  MEMB      50              0.0000000000
      6672        50  POPC      H7Y            -5.5052771318       11.1933793371       -8.3918932650  MEMB      50              0.0000000000
      6673        50  POPC      C38            -4.4804413425       11.2345486924       -6.6000175834  MEMB      50              0.0000000000
      6674        50  POPC      H8X            -4.1958201370       12.3084719694       -6.6007106791  MEMB      50              0.0000000000
      6675        50  POPC      H8Y            -3.7059245201       10.5749147365       -6.1535561910  MEMB      50              0.0000000000
      6676        50  POPC      C39            -5.8088145565       10.9716177237       -5.8192987048  MEMB      50              0.0000000000
      6677        50  POPC      H9X            -6.1819341111        9.9269827812       -5.8812714607  MEMB      50              0.0000000000
      6678        50  POPC      H9Y            -6.6060684007       11.5825245302       -6.2941672865  MEMB      50              0.0000000000
      6679        50  POPC      C310           -5.7363558237       11.4023582899       -4.3547687262  MEMB      50              0.0000000000
      6680        50  POPC      H10X           -4.8060180657       10.9308598668       -3.9720387544  MEMB      50              0.0000000000
      6681        50  POPC      H10Y           -6.6311409639       11.0569054668       -3.7941051220  MEMB      50              0.0000000000
      6682        50  POPC      C311           -5.6900089615       12.9045711983       -4.3088388621  MEMB      50              0.0000000000
      6683        50  POPC      H11X           -6.6075110109       13.3431400525       -4.7562411152  MEMB      50              0.0000000000
      6684        50  POPC      H11Y           -4.7796793644       13.2679349392       -4.8318947559  MEMB      50              0.0000000000
      6685        50  POPC      C312           -5.6429024176       13.4929341535       -2.8587137842  MEMB      50              0.0000000000
      6686        50  POPC      H12X           -6.6497614014       13.3305025173       -2.4180639633  MEMB      50              0.0000000000
      6687        50  POPC      H12Y           -5.4338051544       14.5840461546       -2.8673141010  MEMB      50              0.0000000000
      6688        50  POPC      C313           -4.5654533199       12.8233002092       -1.9749004145  MEMB      50              0.0000000000
      6689        50  POPC      H13X           -3.6497651495       13.1351258618       -2.5213452505  MEMB      50              0.0000000000
      6690        50  POPC      H13Y           -4.5667165782       11.7123131504       -1.9696945760  MEMB      50              0.0000000000
      6691        50  POPC      C314           -4.5697731737       13.2834973071       -0.4956135388  MEMB      50              0.0000000000
      6692        50  POPC      H14X           -4.6459141317       14.3902723539       -0.4358414140  MEMB      50              0.0000000000
      6693        50  POPC      H14Y           -3.6810192388       13.0459260002        0.1272805875  MEMB      50              0.0000000000
      6694        50  POPC      C315           -5.8357756108       12.7307369100        0.3624161417  MEMB      50              0.0000000000
      6695        50  POPC      H15X           -5.7288333573       11.6521247525        0.6063020052  MEMB      50              0.0000000000
      6696        50  POPC      H15Y           -6.6623040663       12.8618632422       -0.3683220331  MEMB      50              0.0000000000
      6697        50  POPC      C316           -5.9792179481       13.4245036196        1.7269383703  MEMB      50              0.0000000000
      6698        50  POPC      H16X           -5.0909987525       13.2155341954        2.3607513915  MEMB      50              0.0000000000
      6699        50  POPC      H16Y           -6.8176726521       13.0714609959        2.3646491412  MEMB      50              0.0000000000
      6700        50  POPC      H16Z           -6.0295099519       14.5283261831        1.6113170562  MEMB      50              0.0000000000
      6701        51  POPC      N             -12.0017159968       -8.5839403817      -18.6247278662  MEMB      51              0.0000000000
      6702        51  POPC      C12           -10.7790634342       -9.1069246570      -17.8192081809  MEMB      51              0.0000000000
      6703        51  POPC      H12A          -10.8567956309      -10.1825168524      -17.8780227520  MEMB      51              0.0000000000
      6704        51  POPC      H12B          -11.1099285590       -8.8845402988      -16.8154785628  MEMB      51              0.0000000000
      6705        51  POPC      C13           -12.1478323816       -7.0883799680      -18.7624474515  MEMB      51              0.0000000000
      6706        51  POPC      H13A          -11.8514484022       -6.6012709968      -17.8452335040  MEMB      51              0.0000000000
      6707        51  POPC      H13B          -11.4620801387       -6.7639324793      -19.5311332858  MEMB      51              0.0000000000
      6708        51  POPC      H13C          -13.1565633324       -6.8045199614      -19.0237626066  MEMB      51              0.0000000000
      6709        51  POPC      C14           -12.0523214331       -9.2012273964      -19.9923920725  MEMB      51              0.0000000000
      6710        51  POPC      H14A          -11.3952922276       -8.7743367453      -20.7356801044  MEMB      51              0.0000000000
      6711        51  POPC      H14B          -11.8904932959      -10.2690337967      -19.9934608052  MEMB      51              0.0000000000
      6712        51  POPC      H14C          -13.0796461739       -9.0276431288      -20.2767728639  MEMB      51              0.0000000000
      6713        51  POPC      C15           -13.2135932939       -9.1537827507      -17.9362039806  MEMB      51              0.0000000000
      6714        51  POPC      H15A          -13.1908098163       -9.0136755247      -16.8655730021  MEMB      51              0.0000000000
      6715        51  POPC      H15B          -13.3868879131      -10.2054010749      -18.1107544938  MEMB      51              0.0000000000
      6716        51  POPC      H15C          -13.9900723102       -8.5888228879      -18.4304719505  MEMB      51              0.0000000000
      6717        51  POPC      C11            -9.4314522024       -8.5935294190      -18.2099318856  MEMB      51              0.0000000000
      6718        51  POPC      H11A           -8.7697484691       -8.9815858136      -17.4062644033  MEMB      51              0.0000000000
      6719        51  POPC      H11B           -9.4404124786       -7.4840211535      -18.2667822197  MEMB      51              0.0000000000
      6720        51  POPC      P              -8.8437098586      -10.7713425475      -19.6070360368  MEMB      51              0.0000000000
      6721        51  POPC      O13            -7.5373280079      -11.0717529191      -20.1707814227  MEMB      51              0.0000000000
      6722        51  POPC      O14            -9.9940842176      -11.2875759587      -20.3214755390  MEMB      51              0.0000000000
      6723        51  POPC      O12            -9.0850493184       -9.1540704160      -19.4818926891  MEMB      51              0.0000000000
      6724        51  POPC      O11            -8.8993643438      -11.1893792315      -18.0739028507  MEMB      51              0.0000000000
      6725        51  POPC      C1             -9.0902440561      -12.5493103441      -17.8008929740  MEMB      51              0.0000000000
      6726        51  POPC      HA             -8.3266991583      -13.1736563550      -18.3122752605  MEMB      51              0.0000000000
      6727        51  POPC      HB            -10.0640177210      -12.9281024043      -18.1785204715  MEMB      51              0.0000000000
      6728        51  POPC      C2             -8.9643679039      -12.7743763341      -16.2880740878  MEMB      51              0.0000000000
      6729        51  POPC      HS             -9.0609906856      -13.8489169239      -16.0228425034  MEMB      51              0.0000000000
      6730        51  POPC      O21            -9.9826171463      -11.9243277973      -15.6794377271  MEMB      51              0.0000000000
      6731        51  POPC      C21           -10.5252886683      -12.2941225637      -14.4824324946  MEMB      51              0.0000000000
      6732        51  POPC      O22           -10.1592033650      -13.3125072058      -13.9436501565  MEMB      51              0.0000000000
      6733        51  POPC      C22           -11.5073877765      -11.1553880626      -13.9959418013  MEMB      51              0.0000000000
      6734        51  POPC      H2R           -12.4673041831      -11.6469985413      -13.7291077130  MEMB      51              0.0000000000
      6735        51  POPC      H2S           -11.6432426118      -10.4074369320      -14.8061481254  MEMB      51              0.0000000000
      6736        51  POPC      C3             -7.5770272750      -12.3805427570      -15.7454002800  MEMB      51              0.0000000000
      6737        51  POPC      HX             -6.7830333258      -12.9450282834      -16.2794887663  MEMB      51              0.0000000000
      6738        51  POPC      HY             -7.5084365985      -12.6088349674      -14.6602740883  MEMB      51              0.0000000000
      6739        51  POPC      O31            -7.3970851302      -10.9848363328      -15.8485690948  MEMB      51              0.0000000000
      6740        51  POPC      C31            -6.3894667270      -10.4693459859      -15.1946362589  MEMB      51              0.0000000000
      6741        51  POPC      O32            -5.7787500181      -11.0887102566      -14.2837650107  MEMB      51              0.0000000000
      6742        51  POPC      C32            -6.2659981398       -8.9862956790      -15.4627369194  MEMB      51              0.0000000000
      6743        51  POPC      H2X            -6.7153532150       -8.8623504757      -16.4712200108  MEMB      51              0.0000000000
      6744        51  POPC      H2Y            -5.2045924703       -8.6593265628      -15.4339309231  MEMB      51              0.0000000000
      6745        51  POPC      C23           -10.9605954119      -10.3805370648      -12.7695071389  MEMB      51              0.0000000000
      6746        51  POPC      H3R            -9.9216693398      -10.0947665766      -13.0402263488  MEMB      51              0.0000000000
      6747        51  POPC      H3S           -10.8015090721      -11.0899643383      -11.9294326333  MEMB      51              0.0000000000
      6748        51  POPC      C24           -11.7060168108       -9.1420289089      -12.5046207186  MEMB      51              0.0000000000
      6749        51  POPC      H4R           -12.7536765955       -9.4792412441      -12.3529049505  MEMB      51              0.0000000000
      6750        51  POPC      H4S           -11.6671369875       -8.4646678111      -13.3843885239  MEMB      51              0.0000000000
      6751        51  POPC      C25           -11.0467467200       -8.3283400091      -11.3099678761  MEMB      51              0.0000000000
      6752        51  POPC      H5R           -11.6259461955       -7.3819299510      -11.2537784653  MEMB      51              0.0000000000
      6753        51  POPC      H5S            -9.9908933648       -8.1140273617      -11.5811959669  MEMB      51              0.0000000000
      6754        51  POPC      C26           -11.0315008511       -9.0371311959       -9.9694252089  MEMB      51              0.0000000000
      6755        51  POPC      H6R           -10.1830960289       -9.7507614945      -10.0419653036  MEMB      51              0.0000000000
      6756        51  POPC      H6S           -12.0157572168       -9.5363086777       -9.8414318488  MEMB      51              0.0000000000
      6757        51  POPC      C27           -10.8492628017       -8.0663177534       -8.8021611509  MEMB      51              0.0000000000
      6758        51  POPC      H7R           -11.4139080093       -7.1501737804       -9.0781636989  MEMB      51              0.0000000000
      6759        51  POPC      H7S            -9.7734209508       -7.8038506018       -8.7127401172  MEMB      51              0.0000000000
      6760        51  POPC      C28           -11.3207640872       -8.5605770698       -7.4323479408  MEMB      51              0.0000000000
      6761        51  POPC      H8R           -10.9994451531       -7.8039453479       -6.6849635837  MEMB      51              0.0000000000
      6762        51  POPC      H8S           -10.7233484741       -9.4796699513       -7.2515617290  MEMB      51              0.0000000000
      6763        51  POPC      C29           -12.7911850001       -8.7989360941       -7.3074297940  MEMB      51              0.0000000000
      6764        51  POPC      H91           -13.4846596251       -7.9495233617       -7.2203058990  MEMB      51              0.0000000000
      6765        51  POPC      C210          -13.3641382777      -10.0427784982       -7.4729073428  MEMB      51              0.0000000000
      6766        51  POPC      H101          -14.4585417460      -10.0401501496       -7.3621178691  MEMB      51              0.0000000000
      6767        51  POPC      C211          -12.7040953220      -11.4026341914       -7.7957387601  MEMB      51              0.0000000000
      6768        51  POPC      H11R          -11.8607505391      -11.1290740053       -8.4652572014  MEMB      51              0.0000000000
      6769        51  POPC      H11S          -13.4023635403      -11.9836569932       -8.4353901744  MEMB      51              0.0000000000
      6770        51  POPC      C212          -12.2191866731      -12.2807084175       -6.6867588106  MEMB      51              0.0000000000
      6771        51  POPC      H12R          -13.0636642236      -12.7775445299       -6.1629912088  MEMB      51              0.0000000000
      6772        51  POPC      H12S          -11.6580006456      -11.6691010261       -5.9482949655  MEMB      51              0.0000000000
      6773        51  POPC      C213          -11.3016472738      -13.3882806392       -7.2003254037  MEMB      51              0.0000000000
      6774        51  POPC      H13R          -10.4639102373      -12.9383317861       -7.7748370389  MEMB      51              0.0000000000
      6775        51  POPC      H13S          -11.9420868592      -13.9202458176       -7.9359685315  MEMB      51              0.0000000000
      6776        51  POPC      C214          -10.7201729060      -14.3115218369       -6.1167040970  MEMB      51              0.0000000000
      6777        51  POPC      H14R           -9.9317971552      -14.9067356876       -6.6251380577  MEMB      51              0.0000000000
      6778        51  POPC      H14S          -11.5239215911      -14.9003058647       -5.6251327528  MEMB      51              0.0000000000
      6779        51  POPC      C215           -9.9254840649      -13.5781641232       -5.0442248341  MEMB      51              0.0000000000
      6780        51  POPC      H15R          -10.5302378649      -12.9047294138       -4.3999581082  MEMB      51              0.0000000000
      6781        51  POPC      H15S           -9.2503764174      -12.8205976339       -5.4966000318  MEMB      51              0.0000000000
      6782        51  POPC      C216           -9.0338814382      -14.5004774728       -4.1982979435  MEMB      51              0.0000000000
      6783        51  POPC      H16R           -8.3174844740      -15.0055640169       -4.8809286992  MEMB      51              0.0000000000
      6784        51  POPC      H16S           -9.6065351912      -15.2315473285       -3.5884412614  MEMB      51              0.0000000000
      6785        51  POPC      C217           -8.1107654853      -13.8884412672       -3.1763024770  MEMB      51              0.0000000000
      6786        51  POPC      H17R           -7.3450472094      -13.1780984367       -3.5549973027  MEMB      51              0.0000000000
      6787        51  POPC      H17S           -7.4654967034      -14.7100808230       -2.7983377756  MEMB      51              0.0000000000
      6788        51  POPC      C218           -8.8456747392      -13.2512604817       -1.8790886524  MEMB      51              0.0000000000
      6789        51  POPC      H18R           -9.8721829635      -13.6761420212       -1.8702917326  MEMB      51              0.0000000000
      6790        51  POPC      H18S           -8.9400966677      -12.1489875231       -1.9810697741  MEMB      51              0.0000000000
      6791        51  POPC      H18T           -8.2772206321      -13.5475634312       -0.9716828510  MEMB      51              0.0000000000
      6792        51  POPC      C33            -6.9971554932       -8.0252460329      -14.4267742698  MEMB      51              0.0000000000
      6793        51  POPC      H3X            -8.0198052191       -8.4049448056      -14.2162092717  MEMB      51              0.0000000000
      6794        51  POPC      H3Y            -7.1494780716       -7.0177354176      -14.8695389947  MEMB      51              0.0000000000
      6795        51  POPC      C34            -6.2328927383       -7.8027766435      -13.1998768167  MEMB      51              0.0000000000
      6796        51  POPC      H4X            -5.3434373410       -7.1435863829      -13.2929271018  MEMB      51              0.0000000000
      6797        51  POPC      H4Y            -5.8990704222       -8.8612684899      -13.1500917773  MEMB      51              0.0000000000
      6798        51  POPC      C35            -6.9342873862       -7.4523602828      -11.8856201002  MEMB      51              0.0000000000
      6799        51  POPC      H5X            -7.7078018710       -8.2321719057      -11.7186178036  MEMB      51              0.0000000000
      6800        51  POPC      H5Y            -7.5137272006       -6.5046308468      -11.9051011364  MEMB      51              0.0000000000
      6801        51  POPC      C36            -6.0550819175       -7.4980960955      -10.6267634482  MEMB      51              0.0000000000
      6802        51  POPC      H6X            -5.4317993771       -6.5915885761      -10.4715715299  MEMB      51              0.0000000000
      6803        51  POPC      H6Y            -5.3152035437       -8.3265443454      -10.6027902467  MEMB      51              0.0000000000
      6804        51  POPC      C37            -6.9049523258       -7.5643606366       -9.3341517054  MEMB      51              0.0000000000
      6805        51  POPC      H7X            -7.7146901706       -8.2664854207       -9.6268389740  MEMB      51              0.0000000000
      6806        51  POPC      H7Y            -7.3790178849       -6.5783775180       -9.1407080687  MEMB      51              0.0000000000
      6807        51  POPC      C38            -6.1490880429       -8.0455222024       -8.1014368364  MEMB      51              0.0000000000
      6808        51  POPC      H8X            -5.3787233806       -7.2729007966       -7.8918772986  MEMB      51              0.0000000000
      6809        51  POPC      H8Y            -5.7262955523       -9.0607991484       -8.2588546677  MEMB      51              0.0000000000
      6810        51  POPC      C39            -7.0677936027       -8.1679322003       -6.8252657969  MEMB      51              0.0000000000
      6811        51  POPC      H9X            -7.4427816255       -9.2110623514       -6.8999939041  MEMB      51              0.0000000000
      6812        51  POPC      H9Y            -7.9779779285       -7.5310777698       -6.8426407853  MEMB      51              0.0000000000
      6813        51  POPC      C310           -6.2641341938       -7.9489887850       -5.4893280796  MEMB      51              0.0000000000
      6814        51  POPC      H10X           -6.3473361547       -6.8502000617       -5.3476874143  MEMB      51              0.0000000000
      6815        51  POPC      H10Y           -5.2484814787       -8.3780605027       -5.6259581541  MEMB      51              0.0000000000
      6816        51  POPC      C311           -6.7995676392       -8.7088907628       -4.2538879695  MEMB      51              0.0000000000
      6817        51  POPC      H11X           -6.2942624882       -8.2625164959       -3.3708606156  MEMB      51              0.0000000000
      6818        51  POPC      H11Y           -6.6057519375       -9.7890375208       -4.4272074700  MEMB      51              0.0000000000
      6819        51  POPC      C312           -8.3205720738       -8.5312511424       -3.9161120283  MEMB      51              0.0000000000
      6820        51  POPC      H12X           -8.8016052789       -8.4899562998       -4.9167230737  MEMB      51              0.0000000000
      6821        51  POPC      H12Y           -8.4167680174       -7.5080347538       -3.4940982461  MEMB      51              0.0000000000
      6822        51  POPC      C313           -8.9449877410       -9.6011562700       -3.1572046168  MEMB      51              0.0000000000
      6823        51  POPC      H13X           -8.3511806577       -9.7322807365       -2.2274088974  MEMB      51              0.0000000000
      6824        51  POPC      H13Y           -8.7009989065      -10.5409838875       -3.6971253328  MEMB      51              0.0000000000
      6825        51  POPC      C314          -10.4656564002       -9.6066371573       -2.9868778055  MEMB      51              0.0000000000
      6826        51  POPC      H14X          -10.7423749647      -10.6259365474       -2.6422380539  MEMB      51              0.0000000000
      6827        51  POPC      H14Y          -11.0430823245       -9.4438325037       -3.9219691984  MEMB      51              0.0000000000
      6828        51  POPC      C315          -10.9151733200       -8.6344112715       -1.9337250830  MEMB      51              0.0000000000
      6829        51  POPC      H15X          -11.9996034286       -8.4214537860       -2.0476617041  MEMB      51              0.0000000000
      6830        51  POPC      H15Y          -10.3701438468       -7.7021302956       -2.1947165951  MEMB      51              0.0000000000
      6831        51  POPC      C316          -10.7247517553       -9.1432125226       -0.4838880196  MEMB      51              0.0000000000
      6832        51  POPC      H16X          -11.4319030893       -9.9849606781       -0.3235188763  MEMB      51              0.0000000000
      6833        51  POPC      H16Y          -11.0233777754       -8.3157801167        0.1947141864  MEMB      51              0.0000000000
      6834        51  POPC      H16Z           -9.6862996463       -9.5341061985       -0.4278484355  MEMB      51              0.0000000000
      6835        52  POPC      N              13.5333441101        5.6789591716      -18.8537594078  MEMB      52              0.0000000000
      6836        52  POPC      C12            13.4631125994        6.8641007380      -17.8161162784  MEMB      52              0.0000000000
      6837        52  POPC      H12A           14.4853364476        6.8313604221      -17.4691487092  MEMB      52              0.0000000000
      6838        52  POPC      H12B           12.7966520618        6.5912362446      -17.0112712868  MEMB      52              0.0000000000
      6839        52  POPC      C13            12.1929671353        5.5098713951      -19.5033608117  MEMB      52              0.0000000000
      6840        52  POPC      H13A           11.9852858092        6.3426611878      -20.1588984810  MEMB      52              0.0000000000
      6841        52  POPC      H13B           12.2140281917        4.6316936888      -20.1316605259  MEMB      52              0.0000000000
      6842        52  POPC      H13C           11.4023136653        5.2768798391      -18.8055196720  MEMB      52              0.0000000000
      6843        52  POPC      C14            14.5477375317        5.7980455443      -19.9321568698  MEMB      52              0.0000000000
      6844        52  POPC      H14A           14.1152987395        6.5510691960      -20.5743033517  MEMB      52              0.0000000000
      6845        52  POPC      H14B           15.5028507584        6.0389255143      -19.4892848750  MEMB      52              0.0000000000
      6846        52  POPC      H14C           14.5467958855        4.8781885481      -20.4980741425  MEMB      52              0.0000000000
      6847        52  POPC      C15            13.8067669635        4.4411641111      -18.0765339363  MEMB      52              0.0000000000
      6848        52  POPC      H15A           12.8913712249        4.2101437535      -17.5520530594  MEMB      52              0.0000000000
      6849        52  POPC      H15B           14.5923459867        4.7111614690      -17.3863404474  MEMB      52              0.0000000000
      6850        52  POPC      H15C           13.9601231971        3.6054424311      -18.7432058414  MEMB      52              0.0000000000
      6851        52  POPC      C11            13.0655209767        8.1819571466      -18.3688733986  MEMB      52              0.0000000000
      6852        52  POPC      H11A           13.1333472695        8.9232734852      -17.5441487619  MEMB      52              0.0000000000
      6853        52  POPC      H11B           11.9805684592        8.2971931272      -18.5784432780  MEMB      52              0.0000000000
      6854        52  POPC      P              15.0700739811        9.4124927373      -19.3203784202  MEMB      52              0.0000000000
      6855        52  POPC      O13            15.3724765561       10.1410331770      -20.6106368377  MEMB      52              0.0000000000
      6856        52  POPC      O14            16.1075249982        8.4625145317      -18.8039058598  MEMB      52              0.0000000000
      6857        52  POPC      O12            13.7576048420        8.6161481146      -19.5278120998  MEMB      52              0.0000000000
      6858        52  POPC      O11            14.6296770788       10.4215468802      -18.1864660529  MEMB      52              0.0000000000
      6859        52  POPC      C1             14.9855260624       11.8076073142      -18.3386134730  MEMB      52              0.0000000000
      6860        52  POPC      HA             14.3368020246       12.2005081758      -19.1504673748  MEMB      52              0.0000000000
      6861        52  POPC      HB             16.0755457757       11.9036898348      -18.5308275732  MEMB      52              0.0000000000
      6862        52  POPC      C2             14.6762846745       12.6599308023      -17.0895583125  MEMB      52              0.0000000000
      6863        52  POPC      HS             15.2211722445       13.6281339940      -17.0884781611  MEMB      52              0.0000000000
      6864        52  POPC      O21            15.0683986541       11.8395993193      -15.9443154049  MEMB      52              0.0000000000
      6865        52  POPC      C21            15.1559031752       12.5487171220      -14.7825792686  MEMB      52              0.0000000000
      6866        52  POPC      O22            14.9391211784       13.7389418299      -14.6539683011  MEMB      52              0.0000000000
      6867        52  POPC      C22            15.5349834089       11.6177977561      -13.6099788190  MEMB      52              0.0000000000
      6868        52  POPC      H2R            16.4256927440       11.0331958525      -13.9249368050  MEMB      52              0.0000000000
      6869        52  POPC      H2S            14.6048663913       11.0384148767      -13.4268979488  MEMB      52              0.0000000000
      6870        52  POPC      C3             13.1457133054       12.9731827200      -17.0466199906  MEMB      52              0.0000000000
      6871        52  POPC      HX             12.8092566156       13.5664450348      -17.9236360580  MEMB      52              0.0000000000
      6872        52  POPC      HY             12.9947361369       13.6585899573      -16.1853745709  MEMB      52              0.0000000000
      6873        52  POPC      O31            12.3197385983       11.8277152114      -16.9272984120  MEMB      52              0.0000000000
      6874        52  POPC      C31            11.2232575764       11.9163668587      -16.1384242024  MEMB      52              0.0000000000
      6875        52  POPC      O32            10.9424851854       12.7750303758      -15.3132239429  MEMB      52              0.0000000000
      6876        52  POPC      C32            10.2695137642       10.6996980915      -16.4938218284  MEMB      52              0.0000000000
      6877        52  POPC      H2X            10.6417656638       10.1726736223      -17.3982524255  MEMB      52              0.0000000000
      6878        52  POPC      H2Y             9.2294830805       10.9958764338      -16.7486467571  MEMB      52              0.0000000000
      6879        52  POPC      C23            15.8988304613       12.3178060346      -12.3210212454  MEMB      52              0.0000000000
      6880        52  POPC      H3R            14.9580498211       12.8256733639      -12.0188236100  MEMB      52              0.0000000000
      6881        52  POPC      H3S            16.8031675054       12.9398606978      -12.4929038240  MEMB      52              0.0000000000
      6882        52  POPC      C24            16.2311687565       11.3541597717      -11.1241205638  MEMB      52              0.0000000000
      6883        52  POPC      H4R            16.5314208005       12.0397551745      -10.3030675838  MEMB      52              0.0000000000
      6884        52  POPC      H4S            16.9545930163       10.5818296227      -11.4624757357  MEMB      52              0.0000000000
      6885        52  POPC      C25            15.0187249700       10.5672323264      -10.4547380128  MEMB      52              0.0000000000
      6886        52  POPC      H5R            15.4297620835        9.9700452275       -9.6128727773  MEMB      52              0.0000000000
      6887        52  POPC      H5S            14.6968528775        9.8400108493      -11.2305391945  MEMB      52              0.0000000000
      6888        52  POPC      C26            13.7595183476       11.3206592874       -9.9571297683  MEMB      52              0.0000000000
      6889        52  POPC      H6R            13.2350825571       11.5625184326      -10.9062298161  MEMB      52              0.0000000000
      6890        52  POPC      H6S            14.0968531151       12.2844685054       -9.5194108999  MEMB      52              0.0000000000
      6891        52  POPC      C27            12.7440350366       10.5856399660       -9.0125434561  MEMB      52              0.0000000000
      6892        52  POPC      H7R            13.2154882428       10.2342066824       -8.0699151144  MEMB      52              0.0000000000
      6893        52  POPC      H7S            12.4725826931        9.7594554501       -9.7039576925  MEMB      52              0.0000000000
      6894        52  POPC      C28            11.5323246808       11.4180823024       -8.6304793600  MEMB      52              0.0000000000
      6895        52  POPC      H8R            11.0203414356       10.7656571309       -7.8911990208  MEMB      52              0.0000000000
      6896        52  POPC      H8S            11.0498824908       11.5707187876       -9.6195558305  MEMB      52              0.0000000000
      6897        52  POPC      C29            11.9027254687       12.8116798888       -8.1134443861  MEMB      52              0.0000000000
      6898        52  POPC      H91            12.5316108789       13.3893962922       -8.8068037166  MEMB      52              0.0000000000
      6899        52  POPC      C210           11.5102395129       13.4022539315       -6.9432181852  MEMB      52              0.0000000000
      6900        52  POPC      H101           11.5984985946       14.4955374280       -6.8598995429  MEMB      52              0.0000000000
      6901        52  POPC      C211           10.6221180057       12.7660388581       -5.8909491872  MEMB      52              0.0000000000
      6902        52  POPC      H11R            9.9574258535       11.9503911966       -6.2476351249  MEMB      52              0.0000000000
      6903        52  POPC      H11S           10.0465733050       13.5591928081       -5.3675221935  MEMB      52              0.0000000000
      6904        52  POPC      C212           11.5395060836       12.2121572759       -4.7591595256  MEMB      52              0.0000000000
      6905        52  POPC      H12R           12.1728843683       11.4060724660       -5.1873880479  MEMB      52              0.0000000000
      6906        52  POPC      H12S           10.9209214051       11.8283512791       -3.9198938970  MEMB      52              0.0000000000
      6907        52  POPC      C213           12.3881341025       13.3529734432       -4.1207248834  MEMB      52              0.0000000000
      6908        52  POPC      H13R           11.7685490026       14.1843764510       -3.7217207142  MEMB      52              0.0000000000
      6909        52  POPC      H13S           13.0226864687       13.7889084939       -4.9217392400  MEMB      52              0.0000000000
      6910        52  POPC      C214           13.2745506744       12.8281030246       -2.9420203300  MEMB      52              0.0000000000
      6911        52  POPC      H14R           13.7806027891       11.9086448448       -3.3064762175  MEMB      52              0.0000000000
      6912        52  POPC      H14S           12.5768109170       12.5969522100       -2.1089230263  MEMB      52              0.0000000000
      6913        52  POPC      C215           14.2173216524       13.9288251721       -2.5341312669  MEMB      52              0.0000000000
      6914        52  POPC      H15R           13.6474366863       14.8577547084       -2.3181669146  MEMB      52              0.0000000000
      6915        52  POPC      H15S           14.9056868849       14.1630706138       -3.3741337999  MEMB      52              0.0000000000
      6916        52  POPC      C216           15.1425812128       13.4344395339       -1.3763089236  MEMB      52              0.0000000000
      6917        52  POPC      H16R           16.1127067226       13.9599596142       -1.2459022352  MEMB      52              0.0000000000
      6918        52  POPC      H16S           15.3651278302       12.3687473391       -1.5978816842  MEMB      52              0.0000000000
      6919        52  POPC      C217           14.4015864665       13.3246785677       -0.0420745542  MEMB      52              0.0000000000
      6920        52  POPC      H17R           13.4235930239       12.7977396912       -0.0556894830  MEMB      52              0.0000000000
      6921        52  POPC      H17S           14.1735466406       14.3681701803        0.2636124947  MEMB      52              0.0000000000
      6922        52  POPC      C218           15.2861996211       12.7086591654        1.0856341376  MEMB      52              0.0000000000
      6923        52  POPC      H18R           16.3331452420       13.0800871441        1.0692842833  MEMB      52              0.0000000000
      6924        52  POPC      H18S           15.2609753175       11.6290806850        0.8244907992  MEMB      52              0.0000000000
      6925        52  POPC      H18T           14.7853629974       12.8706613858        2.0640204723  MEMB      52              0.0000000000
      6926        52  POPC      C33            10.2441652487        9.7673976060      -15.3153482252  MEMB      52              0.0000000000
      6927        52  POPC      H3X             9.5758809468        8.9851422710      -15.7346257290  MEMB      52              0.0000000000
      6928        52  POPC      H3Y             9.7974773490       10.3126153031      -14.4565532301  MEMB      52              0.0000000000
      6929        52  POPC      C34            11.5756022376        9.1473102606      -14.8321085308  MEMB      52              0.0000000000
      6930        52  POPC      H4X            12.2190226409       10.0462573067      -14.7215404239  MEMB      52              0.0000000000
      6931        52  POPC      H4Y            12.0922700108        8.5389995077      -15.6049820923  MEMB      52              0.0000000000
      6932        52  POPC      C35            11.3694903859        8.3963699616      -13.5076698208  MEMB      52              0.0000000000
      6933        52  POPC      H5X            10.5284024333        7.7162944586      -13.7614201820  MEMB      52              0.0000000000
      6934        52  POPC      H5Y            10.9406832870        9.0185650213      -12.6932255972  MEMB      52              0.0000000000
      6935        52  POPC      C36            12.6063467164        7.6837251218      -13.0632084836  MEMB      52              0.0000000000
      6936        52  POPC      H6X            13.3934211575        8.2209574697      -12.4920553590  MEMB      52              0.0000000000
      6937        52  POPC      H6Y            13.2233626835        7.4126273231      -13.9464517046  MEMB      52              0.0000000000
      6938        52  POPC      C37            12.3458999825        6.4020336663      -12.3122306190  MEMB      52              0.0000000000
      6939        52  POPC      H7X            13.3030319632        5.8564863019      -12.1687124601  MEMB      52              0.0000000000
      6940        52  POPC      H7Y            11.5639592366        5.7870244426      -12.8068553756  MEMB      52              0.0000000000
      6941        52  POPC      C38            11.9117471022        6.5761176130      -10.8736574114  MEMB      52              0.0000000000
      6942        52  POPC      H8X            11.2314848939        5.7227259415      -10.6656021749  MEMB      52              0.0000000000
      6943        52  POPC      H8Y            11.3241799077        7.5172997600      -10.8165411844  MEMB      52              0.0000000000
      6944        52  POPC      C39            13.0810137126        6.6154156692       -9.9159207880  MEMB      52              0.0000000000
      6945        52  POPC      H9X            13.7251898060        7.5125612247      -10.0362870211  MEMB      52              0.0000000000
      6946        52  POPC      H9Y            13.6701455835        5.6760602603       -9.9856059042  MEMB      52              0.0000000000
      6947        52  POPC      C310           12.6483469479        6.6540549385       -8.4427804348  MEMB      52              0.0000000000
      6948        52  POPC      H10X           12.1793850286        5.7272255526       -8.0485939433  MEMB      52              0.0000000000
      6949        52  POPC      H10Y           12.0488877205        7.5824040156       -8.3281589763  MEMB      52              0.0000000000
      6950        52  POPC      C311           13.8176043187        6.8717383745       -7.4103364091  MEMB      52              0.0000000000
      6951        52  POPC      H11X           14.3497326763        7.8248794926       -7.6169334608  MEMB      52              0.0000000000
      6952        52  POPC      H11Y           14.4766557565        5.9978403372       -7.6007953157  MEMB      52              0.0000000000
      6953        52  POPC      C312           13.3805305218        6.9137295225       -5.9308665779  MEMB      52              0.0000000000
      6954        52  POPC      H12X           14.3209197515        6.9825111252       -5.3432799176  MEMB      52              0.0000000000
      6955        52  POPC      H12Y           12.8901484605        5.9510109283       -5.6719850031  MEMB      52              0.0000000000
      6956        52  POPC      C313           12.4176004431        8.0589702516       -5.6312392623  MEMB      52              0.0000000000
      6957        52  POPC      H13X           11.3618544262        7.7803678915       -5.8364266504  MEMB      52              0.0000000000
      6958        52  POPC      H13Y           12.6338013039        8.9157384784       -6.3046824647  MEMB      52              0.0000000000
      6959        52  POPC      C314           12.4450790943        8.6175947794       -4.2066748847  MEMB      52              0.0000000000
      6960        52  POPC      H14X           11.6167017209        9.3538941761       -4.1293760447  MEMB      52              0.0000000000
      6961        52  POPC      H14Y           13.4644177393        9.0572370812       -4.1621282969  MEMB      52              0.0000000000
      6962        52  POPC      C315           12.4169866333        7.5880868580       -3.0723621395  MEMB      52              0.0000000000
      6963        52  POPC      H15X           13.2285007734        6.8401049626       -3.1999910157  MEMB      52              0.0000000000
      6964        52  POPC      H15Y           11.4421462542        7.0796778619       -2.9125887386  MEMB      52              0.0000000000
      6965        52  POPC      C316           12.5610147399        8.3545321521       -1.7288179996  MEMB      52              0.0000000000
      6966        52  POPC      H16X           12.7224923719        7.6548231796       -0.8810842824  MEMB      52              0.0000000000
      6967        52  POPC      H16Y           11.6290304622        8.9345039677       -1.5574756990  MEMB      52              0.0000000000
      6968        52  POPC      H16Z           13.5152277856        8.9235577495       -1.7259202511  MEMB      52              0.0000000000
      6969        53  POPC      N              14.3424868719       -7.9266365416      -21.1528901103  MEMB      53              0.0000000000
      6970        53  POPC      C12            15.1375931397       -8.1050664833      -19.8524954135  MEMB      53              0.0000000000
      6971        53  POPC      H12A           16.0084657113       -7.4668848932      -19.8790519484  MEMB      53              0.0000000000
      6972        53  POPC      H12B           15.5737436694       -9.0896427770      -19.9348497523  MEMB      53              0.0000000000
      6973        53  POPC      C13            15.1572928505       -8.5134045177      -22.3013992047  MEMB      53              0.0000000000
      6974        53  POPC      H13A           14.9981639541       -9.5781189427      -22.3877781515  MEMB      53              0.0000000000
      6975        53  POPC      H13B           14.9262203701       -8.0153601199      -23.2314302429  MEMB      53              0.0000000000
      6976        53  POPC      H13C           16.1762165051       -8.2606673664      -22.0477884175  MEMB      53              0.0000000000
      6977        53  POPC      C14            12.9209900237       -8.5208264194      -21.0302556647  MEMB      53              0.0000000000
      6978        53  POPC      H14A           13.0206296552       -9.5890850409      -20.9065811770  MEMB      53              0.0000000000
      6979        53  POPC      H14B           12.4177996172       -8.2284011346      -20.1204826130  MEMB      53              0.0000000000
      6980        53  POPC      H14C           12.2889089688       -8.3658539537      -21.8921472481  MEMB      53              0.0000000000
      6981        53  POPC      C15            14.1515950001       -6.5142523940      -21.4219893855  MEMB      53              0.0000000000
      6982        53  POPC      H15A           13.6256209883       -6.0451599106      -20.6036352805  MEMB      53              0.0000000000
      6983        53  POPC      H15B           13.5110343513       -6.3872141074      -22.2821891770  MEMB      53              0.0000000000
      6984        53  POPC      H15C           15.0686353633       -5.9695963163      -21.5916562601  MEMB      53              0.0000000000
      6985        53  POPC      C11            14.4148218453       -7.9075097268      -18.5032332149  MEMB      53              0.0000000000
      6986        53  POPC      H11A           15.2069452240       -8.2236806541      -17.7912658644  MEMB      53              0.0000000000
      6987        53  POPC      H11B           13.5910609753       -8.6383696125      -18.3563221392  MEMB      53              0.0000000000
      6988        53  POPC      P              13.7332475668       -5.9969645630      -16.8959126391  MEMB      53              0.0000000000
      6989        53  POPC      O13            12.6007584493       -6.7338293071      -16.3426301774  MEMB      53              0.0000000000
      6990        53  POPC      O14            13.5137380606       -4.5056928320      -17.0067662780  MEMB      53              0.0000000000
      6991        53  POPC      O12            13.9903949591       -6.5760524325      -18.3351939550  MEMB      53              0.0000000000
      6992        53  POPC      O11            15.0677174771       -6.3462157561      -16.1572339532  MEMB      53              0.0000000000
      6993        53  POPC      C1             16.2957284683       -5.6705974153      -16.5767546450  MEMB      53              0.0000000000
      6994        53  POPC      HA             16.1944770758       -4.6472724597      -16.9973200056  MEMB      53              0.0000000000
      6995        53  POPC      HB             16.9757843499       -6.2282987784      -17.2555875063  MEMB      53              0.0000000000
      6996        53  POPC      C2             17.2710196294       -5.5770273806      -15.3118048755  MEMB      53              0.0000000000
      6997        53  POPC      HS             18.3383094854       -5.5371266267      -15.6177809213  MEMB      53              0.0000000000
      6998        53  POPC      O21            17.0613030355       -6.7761010775      -14.5466458550  MEMB      53              0.0000000000
      6999        53  POPC      C21            17.4229626870       -8.0565361765      -14.9574171109  MEMB      53              0.0000000000
      7000        53  POPC      O22            18.0455046388       -8.2439785771      -15.9956573789  MEMB      53              0.0000000000
      7001        53  POPC      C22            16.9671084729       -9.1942519416      -14.0396213025  MEMB      53              0.0000000000
      7002        53  POPC      H2R            16.0129659086       -8.8317170741      -13.6008717953  MEMB      53              0.0000000000
      7003        53  POPC      H2S            17.7611896819       -9.3697828173      -13.2826902546  MEMB      53              0.0000000000
      7004        53  POPC      C3             16.9443859808       -4.3657807228      -14.3694290746  MEMB      53              0.0000000000
      7005        53  POPC      HX             15.8369346704       -4.3831811461      -14.2824244182  MEMB      53              0.0000000000
      7006        53  POPC      HY             17.2273660706       -3.4325609233      -14.9017299407  MEMB      53              0.0000000000
      7007        53  POPC      O31            17.4903174228       -4.4505448538      -13.0368468990  MEMB      53              0.0000000000
      7008        53  POPC      C31            18.6997502251       -3.9718395194      -12.8773379812  MEMB      53              0.0000000000
      7009        53  POPC      O32            19.4569101794       -3.6462834299      -13.7636261263  MEMB      53              0.0000000000
      7010        53  POPC      C32            18.9055639079       -3.7926373092      -11.3563083528  MEMB      53              0.0000000000
      7011        53  POPC      H2X            17.8840734525       -3.7663647867      -10.9202029005  MEMB      53              0.0000000000
      7012        53  POPC      H2Y            19.3531502554       -2.7989413504      -11.1405406537  MEMB      53              0.0000000000
      7013        53  POPC      C23            16.5990824767      -10.5337694074      -14.7684260544  MEMB      53              0.0000000000
      7014        53  POPC      H3R            17.4339932096      -10.8065785206      -15.4487353351  MEMB      53              0.0000000000
      7015        53  POPC      H3S            15.6402484668      -10.3748400344      -15.3066637381  MEMB      53              0.0000000000
      7016        53  POPC      C24            16.3743796576      -11.7578678780      -13.8198776251  MEMB      53              0.0000000000
      7017        53  POPC      H4R            17.3813194028      -11.9412550892      -13.3877171295  MEMB      53              0.0000000000
      7018        53  POPC      H4S            16.0743788845      -12.6371470510      -14.4291301338  MEMB      53              0.0000000000
      7019        53  POPC      C25            15.3882587391      -11.6322762956      -12.6858823595  MEMB      53              0.0000000000
      7020        53  POPC      H5R            15.8168025537      -11.0365251241      -11.8517649824  MEMB      53              0.0000000000
      7021        53  POPC      H5S            15.2453727976      -12.6201130556      -12.1979436947  MEMB      53              0.0000000000
      7022        53  POPC      C26            14.0084700266      -11.0615331913      -13.0846677566  MEMB      53              0.0000000000
      7023        53  POPC      H6R            13.6650761722      -11.7457985015      -13.8897651996  MEMB      53              0.0000000000
      7024        53  POPC      H6S            14.0558603503      -10.0982878593      -13.6362415793  MEMB      53              0.0000000000
      7025        53  POPC      C27            12.8733798539      -10.9605626480      -11.9991203285  MEMB      53              0.0000000000
      7026        53  POPC      H7R            12.6239177842      -11.9890186445      -11.6609368140  MEMB      53              0.0000000000
      7027        53  POPC      H7S            11.9881038909      -10.6207781799      -12.5780453976  MEMB      53              0.0000000000
      7028        53  POPC      C28            13.0089687154      -10.1256488634      -10.7110660847  MEMB      53              0.0000000000
      7029        53  POPC      H8R            13.8574391902      -10.5228799746      -10.1138835636  MEMB      53              0.0000000000
      7030        53  POPC      H8S            12.1383070708      -10.5188106671      -10.1438863415  MEMB      53              0.0000000000
      7031        53  POPC      C29            13.0175081872       -8.6525963442      -10.8233530169  MEMB      53              0.0000000000
      7032        53  POPC      H91            12.0478942064       -8.2230650034      -11.1155024657  MEMB      53              0.0000000000
      7033        53  POPC      C210           14.0085907844       -7.6933341729      -10.7527468688  MEMB      53              0.0000000000
      7034        53  POPC      H101           13.7088095991       -6.6371278299      -10.8202701271  MEMB      53              0.0000000000
      7035        53  POPC      C211           15.5261442575       -7.9325682562      -10.4567539499  MEMB      53              0.0000000000
      7036        53  POPC      H11R           16.0946723038       -7.3249805073      -11.1929157075  MEMB      53              0.0000000000
      7037        53  POPC      H11S           15.8061513080       -8.9932370111      -10.6325351369  MEMB      53              0.0000000000
      7038        53  POPC      C212           16.0688652403       -7.5676958673       -9.1043856567  MEMB      53              0.0000000000
      7039        53  POPC      H12R           15.5995567174       -6.5894730172       -8.8653237182  MEMB      53              0.0000000000
      7040        53  POPC      H12S           17.1700342340       -7.4877547431       -8.9804626403  MEMB      53              0.0000000000
      7041        53  POPC      C213           15.5005702777       -8.3848608437       -7.9264569367  MEMB      53              0.0000000000
      7042        53  POPC      H13R           15.5326403269       -9.4888565384       -8.0468151625  MEMB      53              0.0000000000
      7043        53  POPC      H13S           14.4039566023       -8.3910409420       -7.7483525070  MEMB      53              0.0000000000
      7044        53  POPC      C214           16.2209084101       -8.1533761334       -6.6562088109  MEMB      53              0.0000000000
      7045        53  POPC      H14R           16.0882236741       -7.1339500127       -6.2349173158  MEMB      53              0.0000000000
      7046        53  POPC      H14S           17.2810290786       -8.4047915167       -6.8735922293  MEMB      53              0.0000000000
      7047        53  POPC      C215           15.4011690380       -9.0407628281       -5.6200324636  MEMB      53              0.0000000000
      7048        53  POPC      H15R           15.1918091976      -10.0711878776       -5.9787995605  MEMB      53              0.0000000000
      7049        53  POPC      H15S           14.4465644686       -8.5180648044       -5.3967886365  MEMB      53              0.0000000000
      7050        53  POPC      C216           16.2139728751       -9.2850198348       -4.3602361639  MEMB      53              0.0000000000
      7051        53  POPC      H16R           16.9118072801      -10.1493163488       -4.3786691998  MEMB      53              0.0000000000
      7052        53  POPC      H16S           15.3598993338       -9.5155055399       -3.6881081362  MEMB      53              0.0000000000
      7053        53  POPC      C217           17.0521836794       -8.0540676155       -3.8479038114  MEMB      53              0.0000000000
      7054        53  POPC      H17R           16.3508148376       -7.1925543703       -3.8338475318  MEMB      53              0.0000000000
      7055        53  POPC      H17S           17.9340613357       -7.8090584401       -4.4776519906  MEMB      53              0.0000000000
      7056        53  POPC      C218           17.6674395007       -8.2241342350       -2.4096766789  MEMB      53              0.0000000000
      7057        53  POPC      H18R           18.3228086327       -9.1164463604       -2.3169861012  MEMB      53              0.0000000000
      7058        53  POPC      H18S           16.8580453637       -8.4514985803       -1.6833800558  MEMB      53              0.0000000000
      7059        53  POPC      H18T           18.1826935064       -7.3305959930       -1.9968532143  MEMB      53              0.0000000000
      7060        53  POPC      C33            19.7294276060       -4.7786804342      -10.6481428928  MEMB      53              0.0000000000
      7061        53  POPC      H3X            20.7846026590       -4.6315850367      -10.9632448338  MEMB      53              0.0000000000
      7062        53  POPC      H3Y            19.3692575351       -5.7811873519      -10.9637038416  MEMB      53              0.0000000000
      7063        53  POPC      C34            19.4478602247       -4.8266184234       -9.1447609134  MEMB      53              0.0000000000
      7064        53  POPC      H4X            18.4279295050       -5.2647038697       -9.0984591075  MEMB      53              0.0000000000
      7065        53  POPC      H4Y            19.4077365970       -3.7820248098       -8.7685490443  MEMB      53              0.0000000000
      7066        53  POPC      C35            20.2670932474       -5.6912529388       -8.2351515105  MEMB      53              0.0000000000
      7067        53  POPC      H5X            21.2894212971       -5.2572065812       -8.2074056971  MEMB      53              0.0000000000
      7068        53  POPC      H5Y            20.1783157995       -6.7315664627       -8.6148717226  MEMB      53              0.0000000000
      7069        53  POPC      C36            19.8159849895       -5.6944670859       -6.8197358005  MEMB      53              0.0000000000
      7070        53  POPC      H6X            20.4476695401       -6.4089079618       -6.2497618765  MEMB      53              0.0000000000
      7071        53  POPC      H6Y            18.7955390894       -6.1274239092       -6.8943005717  MEMB      53              0.0000000000
      7072        53  POPC      C37            19.7294879021       -4.2894571983       -6.1847897125  MEMB      53              0.0000000000
      7073        53  POPC      H7X            19.3074193848       -3.4297161660       -6.7478384690  MEMB      53              0.0000000000
      7074        53  POPC      H7Y            20.7635860925       -3.9238033435       -6.0079885132  MEMB      53              0.0000000000
      7075        53  POPC      C38            18.9486547510       -4.2051267117       -4.8764020517  MEMB      53              0.0000000000
      7076        53  POPC      H8X            19.2240471325       -3.2188522085       -4.4454227439  MEMB      53              0.0000000000
      7077        53  POPC      H8Y            19.2435535826       -5.0173116663       -4.1780389953  MEMB      53              0.0000000000
      7078        53  POPC      C39            17.4679878493       -4.1100418375       -5.1457804592  MEMB      53              0.0000000000
      7079        53  POPC      H9X            17.1460085013       -5.1497554216       -5.3685943761  MEMB      53              0.0000000000
      7080        53  POPC      H9Y            17.2839454674       -3.3922153854       -5.9735330926  MEMB      53              0.0000000000
      7081        53  POPC      C310           16.6457464629       -3.5659162512       -3.9661355661  MEMB      53              0.0000000000
      7082        53  POPC      H10X           17.1505071124       -2.6055899500       -3.7267387921  MEMB      53              0.0000000000
      7083        53  POPC      H10Y           16.7522391766       -4.1048857202       -3.0004804088  MEMB      53              0.0000000000
      7084        53  POPC      C311           15.1679105416       -3.3005445977       -4.2764760379  MEMB      53              0.0000000000
      7085        53  POPC      H11X           15.1674881133       -2.8634999702       -5.2979031129  MEMB      53              0.0000000000
      7086        53  POPC      H11Y           14.6809170713       -2.6220806060       -3.5437789824  MEMB      53              0.0000000000
      7087        53  POPC      C312           14.2626881373       -4.5407573014       -4.3221023380  MEMB      53              0.0000000000
      7088        53  POPC      H12X           14.8260085732       -5.2091532075       -5.0078411367  MEMB      53              0.0000000000
      7089        53  POPC      H12Y           13.2546836522       -4.3252440194       -4.7365918303  MEMB      53              0.0000000000
      7090        53  POPC      C313           14.0935284128       -5.1290056332       -2.9721602900  MEMB      53              0.0000000000
      7091        53  POPC      H13X           13.5360740544       -4.3315353920       -2.4358698588  MEMB      53              0.0000000000
      7092        53  POPC      H13Y           14.9631180171       -5.1842282074       -2.2828952516  MEMB      53              0.0000000000
      7093        53  POPC      C314           13.0882668590       -6.2988429233       -2.7991804269  MEMB      53              0.0000000000
      7094        53  POPC      H14X           13.6422002588       -7.2106482205       -2.4891966033  MEMB      53              0.0000000000
      7095        53  POPC      H14Y           12.8125307683       -6.5277942662       -3.8507843917  MEMB      53              0.0000000000
      7096        53  POPC      C315           11.8399756696       -5.9995898377       -1.9890612761  MEMB      53              0.0000000000
      7097        53  POPC      H15X           11.0732375377       -5.3351029654       -2.4417108794  MEMB      53              0.0000000000
      7098        53  POPC      H15Y           12.3223540717       -5.5198531582       -1.1107188005  MEMB      53              0.0000000000
      7099        53  POPC      C316           11.1665552096       -7.3155612431       -1.5860897614  MEMB      53              0.0000000000
      7100        53  POPC      H16X           11.9018856195       -7.8896938371       -0.9827792750  MEMB      53              0.0000000000
      7101        53  POPC      H16Y           10.9136903276       -7.8490649751       -2.5272341822  MEMB      53              0.0000000000
      7102        53  POPC      H16Z           10.2258741682       -7.0417160375       -1.0622104170  MEMB      53              0.0000000000
      7103        54  POPC      N             -17.2660894109       -5.5143939287      -20.2879588526  MEMB      54              0.0000000000
      7104        54  POPC      C12           -16.6395488052       -5.2890347703      -18.9680407499  MEMB      54              0.0000000000
      7105        54  POPC      H12A          -16.1651275543       -6.2467755063      -18.8129379401  MEMB      54              0.0000000000
      7106        54  POPC      H12B          -17.4123304058       -5.2436330219      -18.2149488455  MEMB      54              0.0000000000
      7107        54  POPC      C13           -16.2344634140       -6.1098080862      -21.1499300967  MEMB      54              0.0000000000
      7108        54  POPC      H13A          -16.4882241184       -5.7702088179      -22.1432465357  MEMB      54              0.0000000000
      7109        54  POPC      H13B          -15.2499296974       -5.7614959550      -20.8746628337  MEMB      54              0.0000000000
      7110        54  POPC      H13C          -16.2261256840       -7.1897265370      -21.1602488879  MEMB      54              0.0000000000
      7111        54  POPC      C14           -18.4028230772       -6.5327349667      -20.0649214736  MEMB      54              0.0000000000
      7112        54  POPC      H14A          -18.7052781045       -6.7119350330      -21.0861012978  MEMB      54              0.0000000000
      7113        54  POPC      H14B          -18.0430968218       -7.4246713502      -19.5735492784  MEMB      54              0.0000000000
      7114        54  POPC      H14C          -19.1812708599       -6.0862123130      -19.4640583015  MEMB      54              0.0000000000
      7115        54  POPC      C15           -17.8207306805       -4.2602622817      -20.8783712069  MEMB      54              0.0000000000
      7116        54  POPC      H15A          -18.5852764363       -3.9550410779      -20.1792933663  MEMB      54              0.0000000000
      7117        54  POPC      H15B          -18.3878219743       -4.6498452032      -21.7108571197  MEMB      54              0.0000000000
      7118        54  POPC      H15C          -17.0291051791       -3.5655813712      -21.1174265341  MEMB      54              0.0000000000
      7119        54  POPC      C11           -15.6354338898       -4.1663058145      -18.6899184885  MEMB      54              0.0000000000
      7120        54  POPC      H11A          -14.8180259390       -4.3466896197      -19.4204163127  MEMB      54              0.0000000000
      7121        54  POPC      H11B          -15.1591005527       -4.2756405906      -17.6921842301  MEMB      54              0.0000000000
      7122        54  POPC      P             -17.1000100866       -2.1966934610      -17.7833403598  MEMB      54              0.0000000000
      7123        54  POPC      O13           -18.2650477919       -3.1146979048      -17.5731457183  MEMB      54              0.0000000000
      7124        54  POPC      O14           -17.3441156936       -0.7798841854      -18.1509527464  MEMB      54              0.0000000000
      7125        54  POPC      O12           -16.1026320913       -2.7902854187      -18.8645187305  MEMB      54              0.0000000000
      7126        54  POPC      O11           -16.1412077900       -2.2569902920      -16.5889015805  MEMB      54              0.0000000000
      7127        54  POPC      C1            -14.9273081667       -1.5436258434      -16.5372271410  MEMB      54              0.0000000000
      7128        54  POPC      HA            -15.1696134205       -0.4652810979      -16.6502844104  MEMB      54              0.0000000000
      7129        54  POPC      HB            -14.2000167990       -1.9103141231      -17.2928117709  MEMB      54              0.0000000000
      7130        54  POPC      C2            -14.2667264629       -1.7729466687      -15.0850493248  MEMB      54              0.0000000000
      7131        54  POPC      HS            -13.2306363330       -1.3720060572      -15.0942526003  MEMB      54              0.0000000000
      7132        54  POPC      O21           -14.3638512361       -3.1548142575      -14.7681166120  MEMB      54              0.0000000000
      7133        54  POPC      C21           -13.6773520794       -4.0279356048      -15.5723817762  MEMB      54              0.0000000000
      7134        54  POPC      O22           -12.9533076465       -3.7674475834      -16.5127567533  MEMB      54              0.0000000000
      7135        54  POPC      C22           -13.9284248880       -5.4208031746      -14.9988550751  MEMB      54              0.0000000000
      7136        54  POPC      H2R           -13.6027044841       -6.1720887085      -15.7497192816  MEMB      54              0.0000000000
      7137        54  POPC      H2S           -14.9816979803       -5.4652637944      -14.6481985229  MEMB      54              0.0000000000
      7138        54  POPC      C3            -14.9725274949       -0.8916664154      -14.0697223622  MEMB      54              0.0000000000
      7139        54  POPC      HX            -14.9178961496        0.1599459192      -14.4239090651  MEMB      54              0.0000000000
      7140        54  POPC      HY            -14.4368457865       -1.0282467649      -13.1060253070  MEMB      54              0.0000000000
      7141        54  POPC      O31           -16.3213913771       -1.3158864110      -14.0622284328  MEMB      54              0.0000000000
      7142        54  POPC      C31           -17.2258613939       -0.4437011032      -13.8002679437  MEMB      54              0.0000000000
      7143        54  POPC      O32           -17.0855818430        0.7161857271      -13.5345183602  MEMB      54              0.0000000000
      7144        54  POPC      C32           -18.5446797727       -1.1649442023      -13.7738097473  MEMB      54              0.0000000000
      7145        54  POPC      H2X           -18.2992417986       -2.1053329812      -14.3120941783  MEMB      54              0.0000000000
      7146        54  POPC      H2Y           -19.3534862103       -0.7273769053      -14.3972581352  MEMB      54              0.0000000000
      7147        54  POPC      C23           -13.0473727459       -5.6012954152      -13.7755168016  MEMB      54              0.0000000000
      7148        54  POPC      H3R           -13.2480531729       -4.7234529718      -13.1247932430  MEMB      54              0.0000000000
      7149        54  POPC      H3S           -11.9797720392       -5.4561322742      -14.0465846445  MEMB      54              0.0000000000
      7150        54  POPC      C24           -13.2991204060       -6.8613332882      -13.0017511890  MEMB      54              0.0000000000
      7151        54  POPC      H4R           -12.4611121416       -7.0490156396      -12.2968831942  MEMB      54              0.0000000000
      7152        54  POPC      H4S           -13.2698327023       -7.7873888041      -13.6148452551  MEMB      54              0.0000000000
      7153        54  POPC      C25           -14.5724447079       -6.8701907182      -12.1574245718  MEMB      54              0.0000000000
      7154        54  POPC      H5R           -15.3853002362       -7.1573063396      -12.8582467362  MEMB      54              0.0000000000
      7155        54  POPC      H5S           -14.7571944379       -5.8033534055      -11.9083325945  MEMB      54              0.0000000000
      7156        54  POPC      C26           -14.6275591652       -7.7573059151      -10.9359805935  MEMB      54              0.0000000000
      7157        54  POPC      H6R           -13.7476919921       -7.5011221581      -10.3078685980  MEMB      54              0.0000000000
      7158        54  POPC      H6S           -14.4771624439       -8.7594495021      -11.3914033680  MEMB      54              0.0000000000
      7159        54  POPC      C27           -15.8535520509       -7.5614213576      -10.0875919225  MEMB      54              0.0000000000
      7160        54  POPC      H7R           -15.8647607972       -8.2956014509       -9.2538214364  MEMB      54              0.0000000000
      7161        54  POPC      H7S           -16.7595513625       -7.7002764356      -10.7154503736  MEMB      54              0.0000000000
      7162        54  POPC      C28           -15.9048630147       -6.1407479803       -9.4316254906  MEMB      54              0.0000000000
      7163        54  POPC      H8R           -15.9061273725       -5.3861659396      -10.2470549980  MEMB      54              0.0000000000
      7164        54  POPC      H8S           -15.0086798454       -6.0203427555       -8.7861185517  MEMB      54              0.0000000000
      7165        54  POPC      C29           -17.1138192269       -5.8214423241       -8.5678106722  MEMB      54              0.0000000000
      7166        54  POPC      H91           -17.7529953374       -4.9952115702       -8.9124788087  MEMB      54              0.0000000000
      7167        54  POPC      C210          -17.3770866459       -6.3784602294       -7.3690294111  MEMB      54              0.0000000000
      7168        54  POPC      H101          -18.3518010647       -6.0857247244       -6.9516122807  MEMB      54              0.0000000000
      7169        54  POPC      C211          -16.6390806471       -7.4796344631       -6.5729898581  MEMB      54              0.0000000000
      7170        54  POPC      H11R          -15.9679321546       -8.0434582096       -7.2556202528  MEMB      54              0.0000000000
      7171        54  POPC      H11S          -17.4458318149       -8.1624832445       -6.2306580066  MEMB      54              0.0000000000
      7172        54  POPC      C212          -15.7647384315       -6.8928262102       -5.4979124318  MEMB      54              0.0000000000
      7173        54  POPC      H12R          -15.4438855142       -7.7265512934       -4.8374003123  MEMB      54              0.0000000000
      7174        54  POPC      H12S          -16.2196855040       -6.1200073503       -4.8420959135  MEMB      54              0.0000000000
      7175        54  POPC      C213          -14.3689074765       -6.3102375350       -6.0040956301  MEMB      54              0.0000000000
      7176        54  POPC      H13R          -14.3717944063       -5.6832001397       -6.9212310256  MEMB      54              0.0000000000
      7177        54  POPC      H13S          -13.5994790691       -7.0923665652       -6.1789532127  MEMB      54              0.0000000000
      7178        54  POPC      C214          -13.5001907744       -5.3794157855       -5.0432799586  MEMB      54              0.0000000000
      7179        54  POPC      H14R          -12.6957660469       -4.9748114390       -5.6940623218  MEMB      54              0.0000000000
      7180        54  POPC      H14S          -12.9838968529       -6.0525498751       -4.3258876845  MEMB      54              0.0000000000
      7181        54  POPC      C215          -14.3244561624       -4.2509364776       -4.3048344757  MEMB      54              0.0000000000
      7182        54  POPC      H15R          -15.2176940747       -4.7111273888       -3.8308389319  MEMB      54              0.0000000000
      7183        54  POPC      H15S          -14.6781399687       -3.5634434217       -5.1026951749  MEMB      54              0.0000000000
      7184        54  POPC      C216          -13.6428467127       -3.3775414321       -3.2299054502  MEMB      54              0.0000000000
      7185        54  POPC      H16R          -13.8618845994       -3.9448026794       -2.3000886395  MEMB      54              0.0000000000
      7186        54  POPC      H16S          -14.3192410007       -2.5227591003       -3.0150596150  MEMB      54              0.0000000000
      7187        54  POPC      C217          -12.2504240988       -2.9600531174       -3.4502545989  MEMB      54              0.0000000000
      7188        54  POPC      H17R          -12.1152427603       -2.5964707032       -4.4913378057  MEMB      54              0.0000000000
      7189        54  POPC      H17S          -11.4515149807       -3.7187128982       -3.3070747469  MEMB      54              0.0000000000
      7190        54  POPC      C218          -11.8093608612       -1.8415185517       -2.5377351282  MEMB      54              0.0000000000
      7191        54  POPC      H18R          -11.6602057251       -2.1797457347       -1.4900343086  MEMB      54              0.0000000000
      7192        54  POPC      H18S          -12.4302386825       -0.9211506365       -2.5796136386  MEMB      54              0.0000000000
      7193        54  POPC      H18T          -10.8191726394       -1.5485961559       -2.9476670485  MEMB      54              0.0000000000
      7194        54  POPC      C33           -19.0725321297       -1.7572579500      -12.4599440290  MEMB      54              0.0000000000
      7195        54  POPC      H3X           -18.2801269326       -2.4325220041      -12.0720861940  MEMB      54              0.0000000000
      7196        54  POPC      H3Y           -19.9631124164       -2.4057727595      -12.6035277918  MEMB      54              0.0000000000
      7197        54  POPC      C34           -19.3536242747       -0.6811003225      -11.3711605900  MEMB      54              0.0000000000
      7198        54  POPC      H4X           -20.2294718608       -0.1226205913      -11.7652571116  MEMB      54              0.0000000000
      7199        54  POPC      H4Y           -18.4700628893       -0.0179039553      -11.2536407327  MEMB      54              0.0000000000
      7200        54  POPC      C35           -19.7932088180       -1.1774341611       -9.9951629276  MEMB      54              0.0000000000
      7201        54  POPC      H5X           -20.5525751862       -1.9654254263      -10.1868741004  MEMB      54              0.0000000000
      7202        54  POPC      H5Y           -20.2376871055       -0.3235422920       -9.4405196131  MEMB      54              0.0000000000
      7203        54  POPC      C36           -18.7499020641       -1.7212984746       -9.0161091585  MEMB      54              0.0000000000
      7204        54  POPC      H6X           -18.1060415436       -2.4118357945       -9.6017056470  MEMB      54              0.0000000000
      7205        54  POPC      H6Y           -19.3672125622       -2.2132113211       -8.2342711818  MEMB      54              0.0000000000
      7206        54  POPC      C37           -17.8861211850       -0.6851653744       -8.3533090971  MEMB      54              0.0000000000
      7207        54  POPC      H7X           -18.6105777727        0.0115076221       -7.8798844875  MEMB      54              0.0000000000
      7208        54  POPC      H7Y           -17.1172827483       -0.1912313817       -8.9851613444  MEMB      54              0.0000000000
      7209        54  POPC      C38           -17.1080428865       -1.2807246490       -7.1600745911  MEMB      54              0.0000000000
      7210        54  POPC      H8X           -16.3354568350       -0.5635862827       -6.8091559977  MEMB      54              0.0000000000
      7211        54  POPC      H8Y           -16.6192434200       -2.2059656181       -7.5333373764  MEMB      54              0.0000000000
      7212        54  POPC      C39           -17.9927775557       -1.7171157403       -5.9609281687  MEMB      54              0.0000000000
      7213        54  POPC      H9X           -18.5224978541       -2.6412223990       -6.2767509923  MEMB      54              0.0000000000
      7214        54  POPC      H9Y           -18.7402844249       -0.9296408526       -5.7254762581  MEMB      54              0.0000000000
      7215        54  POPC      C310          -17.2803206465       -2.1597374881       -4.6787941220  MEMB      54              0.0000000000
      7216        54  POPC      H10X          -16.4656090415       -1.4588139473       -4.3972406686  MEMB      54              0.0000000000
      7217        54  POPC      H10Y          -16.7542213481       -3.0969847011       -4.9600561691  MEMB      54              0.0000000000
      7218        54  POPC      C311          -18.0132235930       -2.2620517267       -3.3552935887  MEMB      54              0.0000000000
      7219        54  POPC      H11X          -19.0137091779       -2.6309891657       -3.6671194279  MEMB      54              0.0000000000
      7220        54  POPC      H11Y          -18.1007235263       -1.2766239622       -2.8497279096  MEMB      54              0.0000000000
      7221        54  POPC      C312          -17.3649702223       -3.2959237725       -2.5037964037  MEMB      54              0.0000000000
      7222        54  POPC      H12X          -16.3838570755       -2.9617363797       -2.1037252149  MEMB      54              0.0000000000
      7223        54  POPC      H12Y          -17.0735707289       -4.0656295461       -3.2500950289  MEMB      54              0.0000000000
      7224        54  POPC      C313          -18.2684665451       -4.0386125706       -1.5486149367  MEMB      54              0.0000000000
      7225        54  POPC      H13X          -17.9455902339       -5.0998316935       -1.4862761475  MEMB      54              0.0000000000
      7226        54  POPC      H13Y          -19.3403014668       -4.0777406344       -1.8383734881  MEMB      54              0.0000000000
      7227        54  POPC      C314          -18.1841009966       -3.4284970098       -0.1182112234  MEMB      54              0.0000000000
      7228        54  POPC      H14X          -18.9793511485       -4.0186738006        0.3853657200  MEMB      54              0.0000000000
      7229        54  POPC      H14Y          -18.4060491154       -2.3485162282       -0.2549668977  MEMB      54              0.0000000000
      7230        54  POPC      C315          -16.8901500130       -3.5422851685        0.6716736449  MEMB      54              0.0000000000
      7231        54  POPC      H15X          -17.0270611351       -2.8568418170        1.5352385978  MEMB      54              0.0000000000
      7232        54  POPC      H15Y          -16.0255404921       -3.1793551790        0.0758102835  MEMB      54              0.0000000000
      7233        54  POPC      C316          -16.4952193168       -4.9547852477        1.2606146823  MEMB      54              0.0000000000
      7234        54  POPC      H16X          -15.4696535873       -4.8942511133        1.6835469812  MEMB      54              0.0000000000
      7235        54  POPC      H16Y          -16.5019434708       -5.6896542526        0.4274014924  MEMB      54              0.0000000000
      7236        54  POPC      H16Z          -17.2585001479       -5.1122670600        2.0523991574  MEMB      54              0.0000000000
      7237        55  POPC      N               7.3819581986       14.4990495126      -18.0615649201  MEMB      55              0.0000000000
      7238        55  POPC      C12             6.4969195353       13.2048487821      -17.7789010160  MEMB      55              0.0000000000
      7239        55  POPC      H12A            5.7037356408       13.2378296364      -18.5111384859  MEMB      55              0.0000000000
      7240        55  POPC      H12B            6.0599535767       13.3354620088      -16.7999216102  MEMB      55              0.0000000000
      7241        55  POPC      C13             8.4008248547       14.5429058063      -16.9557054482  MEMB      55              0.0000000000
      7242        55  POPC      H13A            7.9025163589       14.5830701488      -15.9983781615  MEMB      55              0.0000000000
      7243        55  POPC      H13B            9.1309255845       13.7564620703      -17.0776035661  MEMB      55              0.0000000000
      7244        55  POPC      H13C            8.9937631022       15.4378842154      -17.0733403970  MEMB      55              0.0000000000
      7245        55  POPC      C14             8.0208108185       14.4721214880      -19.3633716721  MEMB      55              0.0000000000
      7246        55  POPC      H14A            8.7796127885       13.7062790697      -19.4274423694  MEMB      55              0.0000000000
      7247        55  POPC      H14B            7.3537280319       14.2898333980      -20.1929328417  MEMB      55              0.0000000000
      7248        55  POPC      H14C            8.5597119177       15.3966837472      -19.5088711786  MEMB      55              0.0000000000
      7249        55  POPC      C15             6.4691304819       15.6902154185      -17.9387660385  MEMB      55              0.0000000000
      7250        55  POPC      H15A            7.0605291082       16.5934245134      -17.9094199959  MEMB      55              0.0000000000
      7251        55  POPC      H15B            5.8352390336       15.6529713712      -17.0651559838  MEMB      55              0.0000000000
      7252        55  POPC      H15C            5.8113631302       15.8287227825      -18.7840812593  MEMB      55              0.0000000000
      7253        55  POPC      C11             7.2323226837       11.8192823479      -17.8554951498  MEMB      55              0.0000000000
      7254        55  POPC      H11A            6.5277955490       11.0076278597      -17.5741065442  MEMB      55              0.0000000000
      7255        55  POPC      H11B            7.9559699650       11.9123202525      -17.0176410145  MEMB      55              0.0000000000
      7256        55  POPC      P               7.0156530120       10.8194266226      -20.3004872728  MEMB      55              0.0000000000
      7257        55  POPC      O13             7.8375695638       10.8355816202      -21.5259765502  MEMB      55              0.0000000000
      7258        55  POPC      O14             5.6206650779       11.3694846871      -20.4332545519  MEMB      55              0.0000000000
      7259        55  POPC      O12             7.7770018368       11.5112133032      -19.0462935888  MEMB      55              0.0000000000
      7260        55  POPC      O11             6.7921507486        9.3414512096      -19.7401837768  MEMB      55              0.0000000000
      7261        55  POPC      C1              7.8570573124        8.6206026868      -19.1192957610  MEMB      55              0.0000000000
      7262        55  POPC      HA              8.6433201338        9.2224278188      -18.6153929624  MEMB      55              0.0000000000
      7263        55  POPC      HB              8.4472474487        8.0666725133      -19.8803200251  MEMB      55              0.0000000000
      7264        55  POPC      C2              7.3525339027        7.6205270946      -18.0588668343  MEMB      55              0.0000000000
      7265        55  POPC      HS              6.5871101007        6.9250958803      -18.4648504909  MEMB      55              0.0000000000
      7266        55  POPC      O21             6.7861402055        8.3491171491      -16.9819732988  MEMB      55              0.0000000000
      7267        55  POPC      C21             5.9903885426        7.6787798645      -16.1458721558  MEMB      55              0.0000000000
      7268        55  POPC      O22             5.5102446172        6.5856789681      -16.2677987135  MEMB      55              0.0000000000
      7269        55  POPC      C22             5.8630957456        8.4259525775      -14.8170536613  MEMB      55              0.0000000000
      7270        55  POPC      H2R             4.9875828446        9.0945928197      -14.9609912755  MEMB      55              0.0000000000
      7271        55  POPC      H2S             6.7022432637        9.1122137668      -14.5737470430  MEMB      55              0.0000000000
      7272        55  POPC      C3              8.5051114009        6.7340140983      -17.5078888628  MEMB      55              0.0000000000
      7273        55  POPC      HX              8.9849541697        6.2634203923      -18.3925431513  MEMB      55              0.0000000000
      7274        55  POPC      HY              8.1864835669        5.8560355897      -16.9062650630  MEMB      55              0.0000000000
      7275        55  POPC      O31             9.4898553189        7.4644322262      -16.8653375424  MEMB      55              0.0000000000
      7276        55  POPC      C31             9.6798727609        7.5044562945      -15.5655072915  MEMB      55              0.0000000000
      7277        55  POPC      O32             9.1054802118        6.8792204253      -14.7254200527  MEMB      55              0.0000000000
      7278        55  POPC      C32            10.5451149447        8.7523834565      -15.1786038075  MEMB      55              0.0000000000
      7279        55  POPC      H2X            11.5827636723        8.3894859684      -15.0176329440  MEMB      55              0.0000000000
      7280        55  POPC      H2Y            10.0887680736        9.0262406806      -14.2033753367  MEMB      55              0.0000000000
      7281        55  POPC      C23             5.4480535050        7.5386093221      -13.6844666120  MEMB      55              0.0000000000
      7282        55  POPC      H3R             4.6147784072        6.8506454064      -13.9426903836  MEMB      55              0.0000000000
      7283        55  POPC      H3S             5.0123673740        8.2363967656      -12.9377465863  MEMB      55              0.0000000000
      7284        55  POPC      C24             6.5280066182        6.7249759733      -12.8043691676  MEMB      55              0.0000000000
      7285        55  POPC      H4R             6.9198926368        5.9044558666      -13.4427211149  MEMB      55              0.0000000000
      7286        55  POPC      H4S             5.8866087284        6.2039161529      -12.0617883883  MEMB      55              0.0000000000
      7287        55  POPC      C25             7.5867557425        7.4846069255      -12.0076637689  MEMB      55              0.0000000000
      7288        55  POPC      H5R             7.2993089167        8.3983949214      -11.4449141466  MEMB      55              0.0000000000
      7289        55  POPC      H5S             8.2918019034        7.8521639373      -12.7836360802  MEMB      55              0.0000000000
      7290        55  POPC      C26             8.2037953967        6.5541764931      -10.9555435313  MEMB      55              0.0000000000
      7291        55  POPC      H6R             8.5541387526        5.5995683961      -11.4030969437  MEMB      55              0.0000000000
      7292        55  POPC      H6S             7.3832564167        6.2563190958      -10.2682895492  MEMB      55              0.0000000000
      7293        55  POPC      C27             9.3542612886        7.1926017697      -10.2525760298  MEMB      55              0.0000000000
      7294        55  POPC      H7R             9.7549769615        8.0087975890      -10.8909896763  MEMB      55              0.0000000000
      7295        55  POPC      H7S            10.2079350467        6.4985384929      -10.0981807295  MEMB      55              0.0000000000
      7296        55  POPC      C28             9.0871764507        7.9126725337       -8.8464422863  MEMB      55              0.0000000000
      7297        55  POPC      H8R             8.1368342394        8.4777228433       -8.9554789947  MEMB      55              0.0000000000
      7298        55  POPC      H8S             9.9660522929        8.5650228340       -8.6558193583  MEMB      55              0.0000000000
      7299        55  POPC      C29             9.0353804016        7.0242048917       -7.6276667464  MEMB      55              0.0000000000
      7300        55  POPC      H91             9.9362207442        6.5273937399       -7.2382238086  MEMB      55              0.0000000000
      7301        55  POPC      C210            7.9263318113        6.6271871932       -6.8711650318  MEMB      55              0.0000000000
      7302        55  POPC      H101            8.0516002690        5.8474161602       -6.1054858248  MEMB      55              0.0000000000
      7303        55  POPC      C211            6.4873852810        7.0517436192       -7.1617822407  MEMB      55              0.0000000000
      7304        55  POPC      H11R            5.7256837472        6.2429663756       -7.1651380082  MEMB      55              0.0000000000
      7305        55  POPC      H11S            6.4525805691        7.7096974888       -8.0563245626  MEMB      55              0.0000000000
      7306        55  POPC      C212            6.1943136906        8.1275491761       -6.0263563586  MEMB      55              0.0000000000
      7307        55  POPC      H12R            5.2512949293        8.6646346319       -6.2642137941  MEMB      55              0.0000000000
      7308        55  POPC      H12S            6.9719350710        8.9201296702       -6.0643349645  MEMB      55              0.0000000000
      7309        55  POPC      C213            6.1360852752        7.4338994136       -4.6132641384  MEMB      55              0.0000000000
      7310        55  POPC      H13R            7.1641669246        7.1093119199       -4.3449134143  MEMB      55              0.0000000000
      7311        55  POPC      H13S            5.5106285185        6.5169991937       -4.6624467834  MEMB      55              0.0000000000
      7312        55  POPC      C214            5.5921776475        8.2224309190       -3.4359189315  MEMB      55              0.0000000000
      7313        55  POPC      H14R            4.5189858479        8.4875356679       -3.5468237637  MEMB      55              0.0000000000
      7314        55  POPC      H14S            6.1628193679        9.1754391873       -3.4143753594  MEMB      55              0.0000000000
      7315        55  POPC      C215            5.8379499082        7.5328859763       -2.1168887163  MEMB      55              0.0000000000
      7316        55  POPC      H15R            6.9381928021        7.5035835292       -1.9654687680  MEMB      55              0.0000000000
      7317        55  POPC      H15S            5.4847853068        6.4812462085       -2.0564769457  MEMB      55              0.0000000000
      7318        55  POPC      C216            5.3189094207        8.3206742171       -0.9872246854  MEMB      55              0.0000000000
      7319        55  POPC      H16R            4.2748870990        8.5723631529       -1.2718124415  MEMB      55              0.0000000000
      7320        55  POPC      H16S            5.9242860976        9.2444545917       -0.8669341383  MEMB      55              0.0000000000
      7321        55  POPC      C217            5.2770285044        7.6055125049        0.3394471844  MEMB      55              0.0000000000
      7322        55  POPC      H17R            4.6884970331        6.6778744254        0.1737983148  MEMB      55              0.0000000000
      7323        55  POPC      H17S            4.6401012141        8.2012637464        1.0277236574  MEMB      55              0.0000000000
      7324        55  POPC      C218            6.6371817926        7.2038096171        0.9263785412  MEMB      55              0.0000000000
      7325        55  POPC      H18R            6.4941732933        6.9133517638        1.9891602136  MEMB      55              0.0000000000
      7326        55  POPC      H18S            7.3353762872        8.0629779187        0.8332378665  MEMB      55              0.0000000000
      7327        55  POPC      H18T            7.0181462369        6.3304010604        0.3551126975  MEMB      55              0.0000000000
      7328        55  POPC      C33            10.5213867454        9.9642109362      -16.1300983465  MEMB      55              0.0000000000
      7329        55  POPC      H3X             9.4957600221       10.1579413995      -16.5107286598  MEMB      55              0.0000000000
      7330        55  POPC      H3Y            11.0622247356        9.6679099426      -17.0542309415  MEMB      55              0.0000000000
      7331        55  POPC      C34            11.0818025127       11.2349919890      -15.5538885695  MEMB      55              0.0000000000
      7332        55  POPC      H4X            10.9573977891       12.0632759513      -16.2838133670  MEMB      55              0.0000000000
      7333        55  POPC      H4Y            12.1608622613       11.1166551143      -15.3173571073  MEMB      55              0.0000000000
      7334        55  POPC      C35            10.4856003866       11.6273967610      -14.1662849887  MEMB      55              0.0000000000
      7335        55  POPC      H5X            10.9729782175       12.6015880516      -13.9478014680  MEMB      55              0.0000000000
      7336        55  POPC      H5Y            10.8509090167       10.8825547843      -13.4273121683  MEMB      55              0.0000000000
      7337        55  POPC      C36             8.9452053750       11.6676998971      -14.1845822156  MEMB      55              0.0000000000
      7338        55  POPC      H6X             8.6319387744       10.6099352205      -14.0529813330  MEMB      55              0.0000000000
      7339        55  POPC      H6Y             8.5346030957       12.1362925200      -15.1044450579  MEMB      55              0.0000000000
      7340        55  POPC      C37             8.3003696798       12.4608209037      -13.0075883277  MEMB      55              0.0000000000
      7341        55  POPC      H7X             7.2215272290       12.3562890346      -13.2514999827  MEMB      55              0.0000000000
      7342        55  POPC      H7Y             8.7017653048       13.4924865227      -13.1017613830  MEMB      55              0.0000000000
      7343        55  POPC      C38             8.6045528790       11.8296202323      -11.6358631842  MEMB      55              0.0000000000
      7344        55  POPC      H8X             9.6965985882       11.6782122374      -11.4986308586  MEMB      55              0.0000000000
      7345        55  POPC      H8Y             8.0930224690       10.8506028420      -11.5167718448  MEMB      55              0.0000000000
      7346        55  POPC      C39             8.2326276184       12.8416785639      -10.4500347746  MEMB      55              0.0000000000
      7347        55  POPC      H9X             7.2125884604       13.2480956343      -10.6193460534  MEMB      55              0.0000000000
      7348        55  POPC      H9Y             8.9892960720       13.6456159334      -10.5743689546  MEMB      55              0.0000000000
      7349        55  POPC      C310            8.3774918837       12.4487402900       -8.9764709776  MEMB      55              0.0000000000
      7350        55  POPC      H10X            7.5723844261       11.7075358618       -8.7847974401  MEMB      55              0.0000000000
      7351        55  POPC      H10Y            8.1953636215       13.2858544283       -8.2690884201  MEMB      55              0.0000000000
      7352        55  POPC      C311            9.7781894249       11.8325252722       -8.5369987655  MEMB      55              0.0000000000
      7353        55  POPC      H11X           10.5905593901       12.5757789113       -8.6851542701  MEMB      55              0.0000000000
      7354        55  POPC      H11Y            9.9699882250       10.9946001047       -9.2408563216  MEMB      55              0.0000000000
      7355        55  POPC      C312            9.6744491627       11.3254803816       -7.0965915725  MEMB      55              0.0000000000
      7356        55  POPC      H12X           10.6824964591       10.9481451262       -6.8213107802  MEMB      55              0.0000000000
      7357        55  POPC      H12Y            8.9709296867       10.4781164209       -6.9504560210  MEMB      55              0.0000000000
      7358        55  POPC      C313            9.4485818151       12.4190647676       -6.0362071287  MEMB      55              0.0000000000
      7359        55  POPC      H13X            8.4420281509       12.8187141993       -6.2840997357  MEMB      55              0.0000000000
      7360        55  POPC      H13Y           10.2531720162       13.1828133578       -6.0965713368  MEMB      55              0.0000000000
      7361        55  POPC      C314            9.3663190854       12.0585143945       -4.5281763634  MEMB      55              0.0000000000
      7362        55  POPC      H14X            8.9425199817       12.8832400532       -3.9161773734  MEMB      55              0.0000000000
      7363        55  POPC      H14Y           10.3611091351       12.1323067774       -4.0390255257  MEMB      55              0.0000000000
      7364        55  POPC      C315            8.6891333070       10.7624160686       -4.0902428135  MEMB      55              0.0000000000
      7365        55  POPC      H15X            9.3790838907        9.9660888080       -4.4425950541  MEMB      55              0.0000000000
      7366        55  POPC      H15Y            7.7525150027       10.4892369141       -4.6216941635  MEMB      55              0.0000000000
      7367        55  POPC      C316            8.6052300276       10.5991613848       -2.5955771118  MEMB      55              0.0000000000
      7368        55  POPC      H16X            7.7777700055       11.2270121137       -2.2013253996  MEMB      55              0.0000000000
      7369        55  POPC      H16Y            9.5675212144       10.8202507553       -2.0862278926  MEMB      55              0.0000000000
      7370        55  POPC      H16Z            8.4234272794        9.5191483649       -2.4089217128  MEMB      55              0.0000000000
      7371        56  POPC      N             -12.4059519953       12.6657497110      -19.1508314035  MEMB      56              0.0000000000
      7372        56  POPC      C12           -11.1965810601       12.9546180157      -18.3710491619  MEMB      56              0.0000000000
      7373        56  POPC      H12A          -11.0602974811       12.2142116738      -17.5966944002  MEMB      56              0.0000000000
      7374        56  POPC      H12B          -11.3719474010       13.9069522460      -17.8928168198  MEMB      56              0.0000000000
      7375        56  POPC      C13           -12.3701515914       11.3153530972      -19.7253130205  MEMB      56              0.0000000000
      7376        56  POPC      H13A          -11.5177296117       11.2862922546      -20.3878326826  MEMB      56              0.0000000000
      7377        56  POPC      H13B          -12.1314500783       10.5985359725      -18.9535651326  MEMB      56              0.0000000000
      7378        56  POPC      H13C          -13.2654255282       11.1007069694      -20.2899473068  MEMB      56              0.0000000000
      7379        56  POPC      C14           -13.5271231464       12.6633540643      -18.1729644266  MEMB      56              0.0000000000
      7380        56  POPC      H14A          -13.5512383245       13.5964663362      -17.6297148119  MEMB      56              0.0000000000
      7381        56  POPC      H14B          -14.5066204887       12.4196632095      -18.5571514507  MEMB      56              0.0000000000
      7382        56  POPC      H14C          -13.2346529474       11.8795479952      -17.4899497195  MEMB      56              0.0000000000
      7383        56  POPC      C15           -12.6414171525       13.6992832558      -20.2480598517  MEMB      56              0.0000000000
      7384        56  POPC      H15A          -12.5358730257       14.6373766188      -19.7234254450  MEMB      56              0.0000000000
      7385        56  POPC      H15B          -13.6338957894       13.5498408898      -20.6468744694  MEMB      56              0.0000000000
      7386        56  POPC      H15C          -11.8819805647       13.5210808171      -20.9949868476  MEMB      56              0.0000000000
      7387        56  POPC      C11            -9.7902484048       12.9625065404      -19.1139887052  MEMB      56              0.0000000000
      7388        56  POPC      H11A           -8.9565375657       13.2624124062      -18.4436874423  MEMB      56              0.0000000000
      7389        56  POPC      H11B           -9.9593279583       13.7417808553      -19.8875937211  MEMB      56              0.0000000000
      7390        56  POPC      P              -8.8017014905       10.5995979521      -18.8607587259  MEMB      56              0.0000000000
      7391        56  POPC      O13            -7.3645647197       10.8917050915      -18.9553902632  MEMB      56              0.0000000000
      7392        56  POPC      O14            -9.2719810423        9.2184310241      -19.3162363027  MEMB      56              0.0000000000
      7393        56  POPC      O12            -9.5055773787       11.7551574546      -19.7172684473  MEMB      56              0.0000000000
      7394        56  POPC      O11            -9.3385228150       10.8338365882      -17.3681396950  MEMB      56              0.0000000000
      7395        56  POPC      C1             -8.3504512172       11.1562210706      -16.3756532347  MEMB      56              0.0000000000
      7396        56  POPC      HA             -8.0800313435       12.2281171245      -16.4862557423  MEMB      56              0.0000000000
      7397        56  POPC      HB             -7.4412466484       10.5207203158      -16.4373504333  MEMB      56              0.0000000000
      7398        56  POPC      C2             -9.0723082923       10.9995721437      -14.9901079863  MEMB      56              0.0000000000
      7399        56  POPC      HS             -9.2056326454        9.9078172957      -14.8332102120  MEMB      56              0.0000000000
      7400        56  POPC      O21           -10.3300828900       11.5808413676      -15.0368024020  MEMB      56              0.0000000000
      7401        56  POPC      C21           -11.3203464441       11.2556797700      -14.1595148441  MEMB      56              0.0000000000
      7402        56  POPC      O22           -11.3255232722       10.3024824254      -13.3833766013  MEMB      56              0.0000000000
      7403        56  POPC      C22           -12.4916162830       12.2149362347      -14.6079885279  MEMB      56              0.0000000000
      7404        56  POPC      H2R           -12.9265491060       11.6702801287      -15.4731497734  MEMB      56              0.0000000000
      7405        56  POPC      H2S           -12.0848749115       13.1352627214      -15.0790316613  MEMB      56              0.0000000000
      7406        56  POPC      C3             -8.2221866302       11.6394772256      -13.9149794233  MEMB      56              0.0000000000
      7407        56  POPC      HX             -8.3134084177       12.7264825307      -14.1257374402  MEMB      56              0.0000000000
      7408        56  POPC      HY             -7.1771104896       11.2635103644      -13.9430126742  MEMB      56              0.0000000000
      7409        56  POPC      O31            -8.7590704248       11.3219586009      -12.6692160457  MEMB      56              0.0000000000
      7410        56  POPC      C31            -8.6224910678       12.1302037707      -11.5573695192  MEMB      56              0.0000000000
      7411        56  POPC      O32            -8.1350258340       13.2233095694      -11.6827605309  MEMB      56              0.0000000000
      7412        56  POPC      C32            -9.4312363874       11.5446853989      -10.3552862102  MEMB      56              0.0000000000
      7413        56  POPC      H2X            -9.1940565855       10.4645628736      -10.2485065258  MEMB      56              0.0000000000
      7414        56  POPC      H2Y           -10.4791912574       11.6222099610      -10.7159826801  MEMB      56              0.0000000000
      7415        56  POPC      C23           -13.3200722262       12.3133089791      -13.2257242766  MEMB      56              0.0000000000
      7416        56  POPC      H3R           -13.4219357431       11.3591792118      -12.6657412512  MEMB      56              0.0000000000
      7417        56  POPC      H3S           -14.3334273095       12.5779728562      -13.5963803938  MEMB      56              0.0000000000
      7418        56  POPC      C24           -12.8285619064       13.4668414474      -12.3202949506  MEMB      56              0.0000000000
      7419        56  POPC      H4R           -12.5656794886       14.2874220699      -13.0216231862  MEMB      56              0.0000000000
      7420        56  POPC      H4S           -11.9956032316       13.1115425641      -11.6766616406  MEMB      56              0.0000000000
      7421        56  POPC      C25           -13.9117783686       13.8191503863      -11.3177515654  MEMB      56              0.0000000000
      7422        56  POPC      H5R           -14.7261982381       14.2577535039      -11.9331116725  MEMB      56              0.0000000000
      7423        56  POPC      H5S           -13.4620257149       14.5976447234      -10.6650727464  MEMB      56              0.0000000000
      7424        56  POPC      C26           -14.5140772085       12.7001660348      -10.3761155623  MEMB      56              0.0000000000
      7425        56  POPC      H6R           -13.8313002244       11.8511647254      -10.1585528920  MEMB      56              0.0000000000
      7426        56  POPC      H6S           -15.4957350965       12.4947838011      -10.8541182971  MEMB      56              0.0000000000
      7427        56  POPC      C27           -14.7876949780       13.2061579132       -8.8910021264  MEMB      56              0.0000000000
      7428        56  POPC      H7R           -15.1913850766       14.2397093640       -8.9469146595  MEMB      56              0.0000000000
      7429        56  POPC      H7S           -13.8061823779       13.2300565775       -8.3710186592  MEMB      56              0.0000000000
      7430        56  POPC      C28           -15.8027221550       12.3459663752       -8.1187529738  MEMB      56              0.0000000000
      7431        56  POPC      H8R           -16.7752633041       12.5181685384       -8.6275081150  MEMB      56              0.0000000000
      7432        56  POPC      H8S           -15.9622219315       12.7716032953       -7.1049914593  MEMB      56              0.0000000000
      7433        56  POPC      C29           -15.4228150614       10.8690439745       -8.0085473011  MEMB      56              0.0000000000
      7434        56  POPC      H91           -15.4914296165       10.3519149822       -8.9769836966  MEMB      56              0.0000000000
      7435        56  POPC      C210          -15.0387584145       10.2298425807       -6.9691495506  MEMB      56              0.0000000000
      7436        56  POPC      H101          -14.7306148597        9.1821668455       -7.1011466768  MEMB      56              0.0000000000
      7437        56  POPC      C211          -14.8147497586       10.8390196623       -5.5613328229  MEMB      56              0.0000000000
      7438        56  POPC      H11R          -15.5366513833       10.3843885572       -4.8496525672  MEMB      56              0.0000000000
      7439        56  POPC      H11S          -14.9881825334       11.9349747719       -5.6172299532  MEMB      56              0.0000000000
      7440        56  POPC      C212          -13.3925657513       10.3715714011       -5.0751021779  MEMB      56              0.0000000000
      7441        56  POPC      H12R          -13.2241340065        9.3081991542       -5.3493121346  MEMB      56              0.0000000000
      7442        56  POPC      H12S          -13.3138092156       10.3046200495       -3.9689212651  MEMB      56              0.0000000000
      7443        56  POPC      C213          -12.2908109430       11.2556857639       -5.7201047739  MEMB      56              0.0000000000
      7444        56  POPC      H13R          -12.5536412289       11.3204148093       -6.7976253693  MEMB      56              0.0000000000
      7445        56  POPC      H13S          -11.2359367329       10.9498618691       -5.5526735877  MEMB      56              0.0000000000
      7446        56  POPC      C214          -12.2935510598       12.7207676379       -5.2111124202  MEMB      56              0.0000000000
      7447        56  POPC      H14R          -13.3113970253       13.1608380902       -5.2792947150  MEMB      56              0.0000000000
      7448        56  POPC      H14S          -11.6679160458       13.2316649879       -5.9739261477  MEMB      56              0.0000000000
      7449        56  POPC      C215          -11.8226047720       12.8820044415       -3.7257518896  MEMB      56              0.0000000000
      7450        56  POPC      H15R          -10.8797382829       12.3141262635       -3.5746285076  MEMB      56              0.0000000000
      7451        56  POPC      H15S          -12.5724765855       12.3721192200       -3.0838565289  MEMB      56              0.0000000000
      7452        56  POPC      C216          -11.4121136385       14.3600750516       -3.4834663982  MEMB      56              0.0000000000
      7453        56  POPC      H16R          -12.3484887734       14.9188262364       -3.6963510523  MEMB      56              0.0000000000
      7454        56  POPC      H16S          -10.6090845183       14.7566920003       -4.1408559747  MEMB      56              0.0000000000
      7455        56  POPC      C217          -10.8170813986       14.5389572918       -2.0539018428  MEMB      56              0.0000000000
      7456        56  POPC      H17R          -10.8177029540       15.6439331609       -1.9383632433  MEMB      56              0.0000000000
      7457        56  POPC      H17S           -9.7371341523       14.2805531005       -2.0183774965  MEMB      56              0.0000000000
      7458        56  POPC      C218          -11.5587206075       13.8832122685       -0.8416363226  MEMB      56              0.0000000000
      7459        56  POPC      H18R          -11.4675591210       14.2456560928        0.2046155557  MEMB      56              0.0000000000
      7460        56  POPC      H18S          -11.1978685251       12.8324580922       -0.8463562522  MEMB      56              0.0000000000
      7461        56  POPC      H18T          -12.6631377084       13.8201106524       -0.9446030274  MEMB      56              0.0000000000
      7462        56  POPC      C33            -9.1601492127       12.3910633937       -9.0659895359  MEMB      56              0.0000000000
      7463        56  POPC      H3X            -9.8784307417       12.1059987497       -8.2677847061  MEMB      56              0.0000000000
      7464        56  POPC      H3Y            -9.2972872051       13.4791895274       -9.2434598697  MEMB      56              0.0000000000
      7465        56  POPC      C34            -7.7555172370       12.1799710488       -8.4784832790  MEMB      56              0.0000000000
      7466        56  POPC      H4X            -7.0053183740       12.1451798219       -9.2972097007  MEMB      56              0.0000000000
      7467        56  POPC      H4Y            -7.7344235047       11.1147670670       -8.1634971878  MEMB      56              0.0000000000
      7468        56  POPC      C35            -7.2450093832       13.2180194164       -7.4323338660  MEMB      56              0.0000000000
      7469        56  POPC      H5X            -7.2388405967       14.1989430616       -7.9539385562  MEMB      56              0.0000000000
      7470        56  POPC      H5Y            -6.2018394985       13.0142909489       -7.1088955670  MEMB      56              0.0000000000
      7471        56  POPC      C36            -8.3286467470       13.3549208329       -6.3348619874  MEMB      56              0.0000000000
      7472        56  POPC      H6X            -9.3652667805       13.4097996775       -6.7307512461  MEMB      56              0.0000000000
      7473        56  POPC      H6Y            -8.1747743137       14.3050568556       -5.7799869355  MEMB      56              0.0000000000
      7474        56  POPC      C37            -8.2131053781       12.2809178451       -5.2422416263  MEMB      56              0.0000000000
      7475        56  POPC      H7X            -7.9396668743       11.3070293533       -5.7016904184  MEMB      56              0.0000000000
      7476        56  POPC      H7Y            -9.2073628977       12.0718656134       -4.7927188319  MEMB      56              0.0000000000
      7477        56  POPC      C38            -7.2632608607       12.6077107694       -4.1864214250  MEMB      56              0.0000000000
      7478        56  POPC      H8X            -7.0836475231       13.6965112869       -4.0576846632  MEMB      56              0.0000000000
      7479        56  POPC      H8Y            -6.2202517441       12.3109773550       -4.4280862911  MEMB      56              0.0000000000
      7480        56  POPC      C39            -7.5860235093       11.9524858872       -2.8281620442  MEMB      56              0.0000000000
      7481        56  POPC      H9X            -7.3260418081       10.9043923785       -3.0893707278  MEMB      56              0.0000000000
      7482        56  POPC      H9Y            -8.6721568444       11.9896794414       -2.5973969294  MEMB      56              0.0000000000
      7483        56  POPC      C310           -6.6679112868       12.4098385025       -1.6906272283  MEMB      56              0.0000000000
      7484        56  POPC      H10X           -7.1386304320       13.3429579235       -1.3137554190  MEMB      56              0.0000000000
      7485        56  POPC      H10Y           -5.6368142923       12.6424181855       -2.0327780293  MEMB      56              0.0000000000
      7486        56  POPC      C311           -6.5514675133       11.4283677671       -0.5306671299  MEMB      56              0.0000000000
      7487        56  POPC      H11X           -6.1645932687       11.9726719414        0.3572408995  MEMB      56              0.0000000000
      7488        56  POPC      H11Y           -5.7362393029       10.7454435018       -0.8521316268  MEMB      56              0.0000000000
      7489        56  POPC      C312           -7.8081638365       10.5922237495       -0.2498522495  MEMB      56              0.0000000000
      7490        56  POPC      H12X           -7.9199161336        9.7663342171       -0.9845216624  MEMB      56              0.0000000000
      7491        56  POPC      H12Y           -8.7280496816       11.2100998458       -0.3296046955  MEMB      56              0.0000000000
      7492        56  POPC      C313           -7.6274839445        9.8091996616        1.1024366428  MEMB      56              0.0000000000
      7493        56  POPC      H13X           -7.6228108427       10.5483302234        1.9318855948  MEMB      56              0.0000000000
      7494        56  POPC      H13Y           -6.6426299910        9.2950254700        1.0994261218  MEMB      56              0.0000000000
      7495        56  POPC      C314           -8.8262033503        8.8909760744        1.4639774671  MEMB      56              0.0000000000
      7496        56  POPC      H14X           -8.5882863612        8.0572141022        2.1586402044  MEMB      56              0.0000000000
      7497        56  POPC      H14Y           -9.1640922229        8.4829463921        0.4874191304  MEMB      56              0.0000000000
      7498        56  POPC      C315          -10.0431100035        9.6641205659        1.9974558719  MEMB      56              0.0000000000
      7499        56  POPC      H15X          -10.3738602552       10.4138141844        1.2471990744  MEMB      56              0.0000000000
      7500        56  POPC      H15Y           -9.5914177006       10.1551636286        2.8858099440  MEMB      56              0.0000000000
      7501        56  POPC      C316          -11.2055786728        8.7703445548        2.3197232436  MEMB      56              0.0000000000
      7502        56  POPC      H16X          -11.6340143119        8.2618979205        1.4296408656  MEMB      56              0.0000000000
      7503        56  POPC      H16Y          -12.0085499913        9.2251913277        2.9383281269  MEMB      56              0.0000000000
      7504        56  POPC      H16Z          -10.8316034856        7.9716961673        2.9954631702  MEMB      56              0.0000000000
      7505        57  POPC      N              18.5888298855       -2.0873449761      -18.7791024110  MEMB      57              0.0000000000
      7506        57  POPC      C12            18.6027094979       -0.8764151981      -17.8739985811  MEMB      57              0.0000000000
      7507        57  POPC      H12A           18.7441372698       -1.2947103048      -16.8883883939  MEMB      57              0.0000000000
      7508        57  POPC      H12B           17.6404679115       -0.3869486261      -17.9042260949  MEMB      57              0.0000000000
      7509        57  POPC      C13            17.7508738191       -3.1983108565      -18.1662957884  MEMB      57              0.0000000000
      7510        57  POPC      H13A           18.1279226161       -3.3870242483      -17.1720013612  MEMB      57              0.0000000000
      7511        57  POPC      H13B           16.7114235858       -2.9051523491      -18.1673360693  MEMB      57              0.0000000000
      7512        57  POPC      H13C           17.7414709576       -4.1202187623      -18.7287879701  MEMB      57              0.0000000000
      7513        57  POPC      C14            17.9724736803       -1.7751955605      -20.0919797051  MEMB      57              0.0000000000
      7514        57  POPC      H14A           18.7266835679       -1.2145691279      -20.6242065044  MEMB      57              0.0000000000
      7515        57  POPC      H14B           17.9276540412       -2.6661604067      -20.7007264552  MEMB      57              0.0000000000
      7516        57  POPC      H14C           17.0100906446       -1.3040036527      -19.9570830579  MEMB      57              0.0000000000
      7517        57  POPC      C15            20.0223715437       -2.5353842241      -18.9900330465  MEMB      57              0.0000000000
      7518        57  POPC      H15A           19.8956629588       -3.3854181692      -19.6440873307  MEMB      57              0.0000000000
      7519        57  POPC      H15B           20.4308179233       -2.7808712828      -18.0208541925  MEMB      57              0.0000000000
      7520        57  POPC      H15C           20.5801785076       -1.7268133849      -19.4388810687  MEMB      57              0.0000000000
      7521        57  POPC      C11            19.6828976971        0.2927772415      -18.1852773355  MEMB      57              0.0000000000
      7522        57  POPC      H11A           20.6750703121       -0.2043433803      -18.1324998971  MEMB      57              0.0000000000
      7523        57  POPC      H11B           19.6106166830        1.0175448494      -17.3463444935  MEMB      57              0.0000000000
      7524        57  POPC      P              19.1677079357        2.5234336250      -19.4491944777  MEMB      57              0.0000000000
      7525        57  POPC      O13            18.5754386379        2.7595435912      -20.7708624304  MEMB      57              0.0000000000
      7526        57  POPC      O14            20.4300301704        3.2312930548      -19.0414094258  MEMB      57              0.0000000000
      7527        57  POPC      O12            19.5190901562        0.9900707617      -19.3986007130  MEMB      57              0.0000000000
      7528        57  POPC      O11            18.0610268712        2.7067724273      -18.2532460868  MEMB      57              0.0000000000
      7529        57  POPC      C1             16.7233019815        2.3507255555      -18.6176638425  MEMB      57              0.0000000000
      7530        57  POPC      HA             16.7329763449        1.2417090302      -18.6833111203  MEMB      57              0.0000000000
      7531        57  POPC      HB             16.2872753339        2.8833312301      -19.4897491886  MEMB      57              0.0000000000
      7532        57  POPC      C2             15.7693918489        2.6488582447      -17.3896441043  MEMB      57              0.0000000000
      7533        57  POPC      HS             15.7047965099        3.7564038032      -17.4487294046  MEMB      57              0.0000000000
      7534        57  POPC      O21            16.4822388719        2.1224930668      -16.2663875462  MEMB      57              0.0000000000
      7535        57  POPC      C21            15.8951100848        2.4860396001      -15.0860294077  MEMB      57              0.0000000000
      7536        57  POPC      O22            14.8985966147        3.1894098051      -15.0319913718  MEMB      57              0.0000000000
      7537        57  POPC      C22            16.7199053132        2.0521343420      -13.8791330822  MEMB      57              0.0000000000
      7538        57  POPC      H2R            17.4248147605        1.2634972124      -14.2189500017  MEMB      57              0.0000000000
      7539        57  POPC      H2S            16.0292019849        1.6796418637      -13.0926858571  MEMB      57              0.0000000000
      7540        57  POPC      C3             14.4020373490        1.9772559325      -17.6930110449  MEMB      57              0.0000000000
      7541        57  POPC      HX             14.1807131083        2.1561251055      -18.7669488514  MEMB      57              0.0000000000
      7542        57  POPC      HY             13.5919712322        2.4295376412      -17.0818197802  MEMB      57              0.0000000000
      7543        57  POPC      O31            14.6398239243        0.5772487028      -17.4649009069  MEMB      57              0.0000000000
      7544        57  POPC      C31            13.9723411204        0.0617166948      -16.4505938154  MEMB      57              0.0000000000
      7545        57  POPC      O32            12.8830062458        0.4118996962      -16.0058445178  MEMB      57              0.0000000000
      7546        57  POPC      C32            14.7884270039       -1.0654625276      -15.8425130641  MEMB      57              0.0000000000
      7547        57  POPC      H2X            15.8764349834       -0.8912494558      -15.9846725233  MEMB      57              0.0000000000
      7548        57  POPC      H2Y            14.6040666299       -1.9781658906      -16.4485696515  MEMB      57              0.0000000000
      7549        57  POPC      C23            17.5410834536        3.3059726015      -13.3487189034  MEMB      57              0.0000000000
      7550        57  POPC      H3R            16.9682547305        4.1542667058      -12.9167634461  MEMB      57              0.0000000000
      7551        57  POPC      H3S            17.9870851166        3.8404029044      -14.2146213163  MEMB      57              0.0000000000
      7552        57  POPC      C24            18.6413729568        3.0066033489      -12.3204955269  MEMB      57              0.0000000000
      7553        57  POPC      H4R            19.2371432918        3.9374994083      -12.2073094531  MEMB      57              0.0000000000
      7554        57  POPC      H4S            19.3112978386        2.2374306572      -12.7608304919  MEMB      57              0.0000000000
      7555        57  POPC      C25            18.0713126240        2.4537157666      -11.0232373056  MEMB      57              0.0000000000
      7556        57  POPC      H5R            18.8671771324        2.3654523368      -10.2530879589  MEMB      57              0.0000000000
      7557        57  POPC      H5S            17.7371215642        1.4164815158      -11.2395296779  MEMB      57              0.0000000000
      7558        57  POPC      C26            16.8659184106        3.1803911995      -10.3769770372  MEMB      57              0.0000000000
      7559        57  POPC      H6R            16.2068363067        2.4621938752       -9.8439436128  MEMB      57              0.0000000000
      7560        57  POPC      H6S            16.1127616699        3.6502659855      -11.0450292570  MEMB      57              0.0000000000
      7561        57  POPC      C27            17.3529418039        4.3181586495       -9.4097076579  MEMB      57              0.0000000000
      7562        57  POPC      H7R            17.3268875089        5.3163675966       -9.8967604417  MEMB      57              0.0000000000
      7563        57  POPC      H7S            18.4243931497        4.2545872025       -9.1228764667  MEMB      57              0.0000000000
      7564        57  POPC      C28            16.3753419846        4.4936549133       -8.1612385944  MEMB      57              0.0000000000
      7565        57  POPC      H8R            16.7765168293        5.2091562311       -7.4119467252  MEMB      57              0.0000000000
      7566        57  POPC      H8S            16.4636792067        3.4765247363       -7.7231022491  MEMB      57              0.0000000000
      7567        57  POPC      C29            14.9590222638        4.5906815611       -8.4899575577  MEMB      57              0.0000000000
      7568        57  POPC      H91            14.6990588800        5.2771844918       -9.3091845659  MEMB      57              0.0000000000
      7569        57  POPC      C210           13.8321371301        4.0830351356       -7.8752319180  MEMB      57              0.0000000000
      7570        57  POPC      H101           12.8205889154        4.1558556567       -8.3012220360  MEMB      57              0.0000000000
      7571        57  POPC      C211           13.8477458333        3.1726664962       -6.6671998159  MEMB      57              0.0000000000
      7572        57  POPC      H11R           14.8505617466        2.7099674864       -6.5464098119  MEMB      57              0.0000000000
      7573        57  POPC      H11S           13.0885125954        2.3619451130       -6.6920358840  MEMB      57              0.0000000000
      7574        57  POPC      C212           13.7340082133        4.0444552807       -5.3542904339  MEMB      57              0.0000000000
      7575        57  POPC      H12R           12.8625681787        4.7151587491       -5.5126274379  MEMB      57              0.0000000000
      7576        57  POPC      H12S           14.5053402439        4.8426193259       -5.3063077890  MEMB      57              0.0000000000
      7577        57  POPC      C213           13.3788643430        3.1406495321       -4.1423727869  MEMB      57              0.0000000000
      7578        57  POPC      H13R           12.5970378041        2.4751658175       -4.5668721792  MEMB      57              0.0000000000
      7579        57  POPC      H13S           12.9853523711        3.8253938286       -3.3609664246  MEMB      57              0.0000000000
      7580        57  POPC      C214           14.3855768609        2.1019743387       -3.6130687282  MEMB      57              0.0000000000
      7581        57  POPC      H14R           14.6324569682        1.4524095743       -4.4799230056  MEMB      57              0.0000000000
      7582        57  POPC      H14S           13.8444839719        1.4716493950       -2.8753494173  MEMB      57              0.0000000000
      7583        57  POPC      C215           15.6006166766        2.6747724342       -2.9436565282  MEMB      57              0.0000000000
      7584        57  POPC      H15R           15.1785055859        3.2688388526       -2.1050703323  MEMB      57              0.0000000000
      7585        57  POPC      H15S           16.1447291570        3.3437883878       -3.6441420159  MEMB      57              0.0000000000
      7586        57  POPC      C216           16.6245961707        1.6023429479       -2.4386104001  MEMB      57              0.0000000000
      7587        57  POPC      H16R           17.1884491905        1.2520742530       -3.3295093254  MEMB      57              0.0000000000
      7588        57  POPC      H16S           16.1215136473        0.6987887584       -2.0326300993  MEMB      57              0.0000000000
      7589        57  POPC      C217           17.7037375258        2.2654684652       -1.5004112157  MEMB      57              0.0000000000
      7590        57  POPC      H17R           18.4109594275        1.5269699584       -1.0659255763  MEMB      57              0.0000000000
      7591        57  POPC      H17S           17.1876481312        2.8198147044       -0.6875930431  MEMB      57              0.0000000000
      7592        57  POPC      C218           18.5415058852        3.2737109495       -2.2844583408  MEMB      57              0.0000000000
      7593        57  POPC      H18R           19.2561497651        3.8031735639       -1.6186701175  MEMB      57              0.0000000000
      7594        57  POPC      H18S           17.8792525242        4.0953018715       -2.6319206023  MEMB      57              0.0000000000
      7595        57  POPC      H18T           19.0795177241        2.8474607677       -3.1580569215  MEMB      57              0.0000000000
      7596        57  POPC      C33            14.4138534023       -1.1448269725      -14.3474954406  MEMB      57              0.0000000000
      7597        57  POPC      H3X            13.3877899709       -1.5302744863      -14.1659884198  MEMB      57              0.0000000000
      7598        57  POPC      H3Y            14.6238797329       -0.1750187518      -13.8478132581  MEMB      57              0.0000000000
      7599        57  POPC      C34            15.2972231473       -2.3014859714      -13.6678844881  MEMB      57              0.0000000000
      7600        57  POPC      H4X            16.3260771625       -2.2367990309      -14.0821259140  MEMB      57              0.0000000000
      7601        57  POPC      H4Y            14.8404982481       -3.2028168238      -14.1297571206  MEMB      57              0.0000000000
      7602        57  POPC      C35            15.3002220484       -2.2558189500      -12.2004594257  MEMB      57              0.0000000000
      7603        57  POPC      H5X            15.8019166208       -3.1929983648      -11.8774757399  MEMB      57              0.0000000000
      7604        57  POPC      H5Y            14.2660294881       -2.3399404642      -11.8033563954  MEMB      57              0.0000000000
      7605        57  POPC      C36            15.9678174031       -1.0240788758      -11.6945555271  MEMB      57              0.0000000000
      7606        57  POPC      H6X            15.2280824840       -0.2153364442      -11.5127622119  MEMB      57              0.0000000000
      7607        57  POPC      H6Y            16.6534964249       -0.6578818648      -12.4883223880  MEMB      57              0.0000000000
      7608        57  POPC      C37            16.8006685383       -1.0805098495      -10.3343276818  MEMB      57              0.0000000000
      7609        57  POPC      H7X            16.9702277229       -0.0021633401      -10.1275925451  MEMB      57              0.0000000000
      7610        57  POPC      H7Y            17.8384167141       -1.3924779890      -10.5794320144  MEMB      57              0.0000000000
      7611        57  POPC      C38            16.1433476626       -1.5628614988       -9.0106238242  MEMB      57              0.0000000000
      7612        57  POPC      H8X            16.7896414683       -2.3352434674       -8.5415276948  MEMB      57              0.0000000000
      7613        57  POPC      H8Y            15.2480197359       -2.1535581281       -9.3000828020  MEMB      57              0.0000000000
      7614        57  POPC      C39            15.8106046421       -0.4372017063       -7.9748857120  MEMB      57              0.0000000000
      7615        57  POPC      H9X            15.3346921776       -0.9940368977       -7.1395641286  MEMB      57              0.0000000000
      7616        57  POPC      H9Y            15.0926279744        0.2620373413       -8.4543596697  MEMB      57              0.0000000000
      7617        57  POPC      C310           17.0450406547        0.4177700226       -7.4486835081  MEMB      57              0.0000000000
      7618        57  POPC      H10X           16.6310504239        1.2658402446       -6.8624158183  MEMB      57              0.0000000000
      7619        57  POPC      H10Y           17.6212825696        0.8618258486       -8.2883738851  MEMB      57              0.0000000000
      7620        57  POPC      C311           18.0612667320       -0.2395190645       -6.5442142050  MEMB      57              0.0000000000
      7621        57  POPC      H11X           18.6909314160        0.5503698136       -6.0817004640  MEMB      57              0.0000000000
      7622        57  POPC      H11Y           18.7646609797       -0.9469745692       -7.0331552110  MEMB      57              0.0000000000
      7623        57  POPC      C312           17.4358795561       -1.0292774637       -5.3474791419  MEMB      57              0.0000000000
      7624        57  POPC      H12X           16.7972877257       -1.8878485453       -5.6464391979  MEMB      57              0.0000000000
      7625        57  POPC      H12Y           16.7758848228       -0.2925433660       -4.8415629090  MEMB      57              0.0000000000
      7626        57  POPC      C313           18.4860290222       -1.4750800668       -4.3371904984  MEMB      57              0.0000000000
      7627        57  POPC      H13X           18.9991417877       -0.5659453408       -3.9570452660  MEMB      57              0.0000000000
      7628        57  POPC      H13Y           19.2242181338       -2.1353174056       -4.8406622215  MEMB      57              0.0000000000
      7629        57  POPC      C314           17.9244484029       -2.3039912344       -3.1744566742  MEMB      57              0.0000000000
      7630        57  POPC      H14X           17.4894876980       -3.2283720575       -3.6110917536  MEMB      57              0.0000000000
      7631        57  POPC      H14Y           17.1610067596       -1.6179127220       -2.7492798469  MEMB      57              0.0000000000
      7632        57  POPC      C315           18.8863961477       -2.4552543159       -1.9708892902  MEMB      57              0.0000000000
      7633        57  POPC      H15X           19.0936298996       -1.3863939214       -1.7497271536  MEMB      57              0.0000000000
      7634        57  POPC      H15Y           19.9205058640       -2.8466132352       -2.0794089354  MEMB      57              0.0000000000
      7635        57  POPC      C316           18.1897047920       -3.0594902529       -0.7350688328  MEMB      57              0.0000000000
      7636        57  POPC      H16X           17.7185090366       -4.0331585057       -0.9885760917  MEMB      57              0.0000000000
      7637        57  POPC      H16Y           17.4671154378       -2.2912007589       -0.3859038453  MEMB      57              0.0000000000
      7638        57  POPC      H16Z           18.9070733469       -3.1393989784        0.1095117198  MEMB      57              0.0000000000
      7639        58  POPC      N              -4.2426364223      -16.8044014876      -17.2807771428  MEMB      58              0.0000000000
      7640        58  POPC      C12            -3.8487760363      -16.7521583008      -18.7752183799  MEMB      58              0.0000000000
      7641        58  POPC      H12A           -3.7080098838      -17.7938944653      -19.0229492803  MEMB      58              0.0000000000
      7642        58  POPC      H12B           -2.9996250307      -16.0901649700      -18.8595220983  MEMB      58              0.0000000000
      7643        58  POPC      C13            -5.4260170042      -17.6055165849      -16.9272192391  MEMB      58              0.0000000000
      7644        58  POPC      H13A           -5.3336947746      -18.5938124778      -17.3528337791  MEMB      58              0.0000000000
      7645        58  POPC      H13B           -5.3427349554      -17.6833013492      -15.8532480985  MEMB      58              0.0000000000
      7646        58  POPC      H13C           -6.3734694676      -17.1322909722      -17.1388589434  MEMB      58              0.0000000000
      7647        58  POPC      C14            -2.9774972373      -17.3334806634      -16.5260937887  MEMB      58              0.0000000000
      7648        58  POPC      H14A           -2.2018417743      -16.6042888147      -16.7078565111  MEMB      58              0.0000000000
      7649        58  POPC      H14B           -3.2051752247      -17.4604639673      -15.4780299888  MEMB      58              0.0000000000
      7650        58  POPC      H14C           -2.7573275723      -18.3032731001      -16.9473159107  MEMB      58              0.0000000000
      7651        58  POPC      C15            -4.4992129440      -15.4072270204      -16.7962256540  MEMB      58              0.0000000000
      7652        58  POPC      H15A           -5.4500905794      -15.1700826399      -17.2500914729  MEMB      58              0.0000000000
      7653        58  POPC      H15B           -3.6835115620      -14.7469977653      -17.0514290730  MEMB      58              0.0000000000
      7654        58  POPC      H15C           -4.7482550877      -15.4415030855      -15.7458909643  MEMB      58              0.0000000000
      7655        58  POPC      C11            -4.9427218101      -16.1848169983      -19.7455377410  MEMB      58              0.0000000000
      7656        58  POPC      H11A           -4.4093843275      -16.3448983343      -20.7069149522  MEMB      58              0.0000000000
      7657        58  POPC      H11B           -5.1747689096      -15.1132954518      -19.5657689427  MEMB      58              0.0000000000
      7658        58  POPC      P              -6.4336888285      -18.2088034215      -20.6523170473  MEMB      58              0.0000000000
      7659        58  POPC      O13            -5.4046869670      -19.2657377777      -20.4643073704  MEMB      58              0.0000000000
      7660        58  POPC      O14            -6.6682247890      -17.7582883186      -22.0428649357  MEMB      58              0.0000000000
      7661        58  POPC      O12            -6.1395997831      -16.9697145350      -19.6934124847  MEMB      58              0.0000000000
      7662        58  POPC      O11            -7.8280328102      -18.8214568851      -20.0960262007  MEMB      58              0.0000000000
      7663        58  POPC      C1             -7.9052384667      -19.4860819994      -18.8142853760  MEMB      58              0.0000000000
      7664        58  POPC      HA             -7.0036690509      -19.4011513902      -18.1706390874  MEMB      58              0.0000000000
      7665        58  POPC      HB             -7.9964547467      -20.5874038754      -18.9286999581  MEMB      58              0.0000000000
      7666        58  POPC      C2             -9.1555975042      -19.0692168926      -17.9941035266  MEMB      58              0.0000000000
      7667        58  POPC      HS            -10.0423676800      -19.0450643707      -18.6629656250  MEMB      58              0.0000000000
      7668        58  POPC      O21            -8.9456576408      -17.8076006651      -17.4453035442  MEMB      58              0.0000000000
      7669        58  POPC      C21            -9.9693620818      -17.1351770274      -16.9995207674  MEMB      58              0.0000000000
      7670        58  POPC      O22           -11.1592211388      -17.4590840696      -17.0924372504  MEMB      58              0.0000000000
      7671        58  POPC      C22            -9.4021832531      -15.8474988690      -16.3865758775  MEMB      58              0.0000000000
      7672        58  POPC      H2R           -10.2403970227      -15.1919273264      -16.0672878383  MEMB      58              0.0000000000
      7673        58  POPC      H2S            -8.6775898173      -15.3393794567      -17.0582157216  MEMB      58              0.0000000000
      7674        58  POPC      C3             -9.4495737955      -20.0913145829      -16.8927639942  MEMB      58              0.0000000000
      7675        58  POPC      HX             -9.5768953142      -21.1507868009      -17.2020029935  MEMB      58              0.0000000000
      7676        58  POPC      HY            -10.4748339631      -19.8457244908      -16.5422667790  MEMB      58              0.0000000000
      7677        58  POPC      O31            -8.5945281475      -19.8614014298      -15.8386926063  MEMB      58              0.0000000000
      7678        58  POPC      C31            -8.9789524170      -20.1213092462      -14.5933027753  MEMB      58              0.0000000000
      7679        58  POPC      O32           -10.0958644036      -20.2811095658      -14.1962967507  MEMB      58              0.0000000000
      7680        58  POPC      C32            -7.7245131950      -20.1874856336      -13.6803256225  MEMB      58              0.0000000000
      7681        58  POPC      H2X            -7.7449030273      -19.2070583520      -13.1581497179  MEMB      58              0.0000000000
      7682        58  POPC      H2Y            -6.7302403480      -20.2984429159      -14.1634725037  MEMB      58              0.0000000000
      7683        58  POPC      C23            -8.5129410560      -16.3044551971      -15.1966730792  MEMB      58              0.0000000000
      7684        58  POPC      H3R            -7.7232238579      -17.0418522227      -15.4553491473  MEMB      58              0.0000000000
      7685        58  POPC      H3S            -9.2251825077      -16.7874359969      -14.4939903399  MEMB      58              0.0000000000
      7686        58  POPC      C24            -7.9055324227      -15.1170016196      -14.5025194387  MEMB      58              0.0000000000
      7687        58  POPC      H4R            -8.7568205510      -14.4844077394      -14.1716810294  MEMB      58              0.0000000000
      7688        58  POPC      H4S            -7.3639818617      -14.5605679059      -15.2971427884  MEMB      58              0.0000000000
      7689        58  POPC      C25            -7.3059119867      -15.3555991895      -13.0957666193  MEMB      58              0.0000000000
      7690        58  POPC      H5R            -6.7506318485      -14.4304096873      -12.8311738922  MEMB      58              0.0000000000
      7691        58  POPC      H5S            -6.5568190781      -16.1755816501      -13.1242175672  MEMB      58              0.0000000000
      7692        58  POPC      C26            -8.3874792606      -15.6813916697      -12.0903595385  MEMB      58              0.0000000000
      7693        58  POPC      H6R            -8.7799849857      -16.6831576093      -12.3673529099  MEMB      58              0.0000000000
      7694        58  POPC      H6S            -9.2937541802      -15.0466973573      -12.1911060785  MEMB      58              0.0000000000
      7695        58  POPC      C27            -7.8207607420      -15.6726264706      -10.6721823475  MEMB      58              0.0000000000
      7696        58  POPC      H7R            -7.2527644542      -14.7462375573      -10.4408711210  MEMB      58              0.0000000000
      7697        58  POPC      H7S            -7.0331746529      -16.4444560129      -10.8074899343  MEMB      58              0.0000000000
      7698        58  POPC      C28            -8.6839406538      -16.2524774699       -9.5364689950  MEMB      58              0.0000000000
      7699        58  POPC      H8R            -9.3644208248      -17.0900352615       -9.8005988874  MEMB      58              0.0000000000
      7700        58  POPC      H8S            -9.3446686966      -15.3880008241       -9.3118811018  MEMB      58              0.0000000000
      7701        58  POPC      C29            -7.9144043771      -16.8202653624       -8.3904434967  MEMB      58              0.0000000000
      7702        58  POPC      H91            -7.6999553092      -17.8984143868       -8.4305204531  MEMB      58              0.0000000000
      7703        58  POPC      C210           -7.4635266166      -16.0978325100       -7.3708725128  MEMB      58              0.0000000000
      7704        58  POPC      H101           -6.9994533691      -16.6717498765       -6.5552412734  MEMB      58              0.0000000000
      7705        58  POPC      C211           -7.5553656994      -14.6649149869       -7.0408370747  MEMB      58              0.0000000000
      7706        58  POPC      H11R           -8.0612749533      -14.4472220088       -6.0759606491  MEMB      58              0.0000000000
      7707        58  POPC      H11S           -8.2250588086      -14.1471810225       -7.7604094150  MEMB      58              0.0000000000
      7708        58  POPC      C212           -6.2861197218      -13.8657376565       -7.1365880230  MEMB      58              0.0000000000
      7709        58  POPC      H12R           -6.4866747686      -12.7804841048       -7.0088280802  MEMB      58              0.0000000000
      7710        58  POPC      H12S           -5.7865262462      -14.0388773300       -8.1137009929  MEMB      58              0.0000000000
      7711        58  POPC      C213           -5.2165799970      -14.2658117752       -6.1128397843  MEMB      58              0.0000000000
      7712        58  POPC      H13R           -4.3845686884      -13.5343983023       -6.1971788236  MEMB      58              0.0000000000
      7713        58  POPC      H13S           -4.8078662186      -15.2478097339       -6.4337042325  MEMB      58              0.0000000000
      7714        58  POPC      C214           -5.5790342092      -14.4362355185       -4.6497640136  MEMB      58              0.0000000000
      7715        58  POPC      H14R           -6.5433064636      -14.9848951932       -4.5908279884  MEMB      58              0.0000000000
      7716        58  POPC      H14S           -5.7758757402      -13.4013729871       -4.2967284005  MEMB      58              0.0000000000
      7717        58  POPC      C215           -4.4208105132      -14.9985267588       -3.8146816878  MEMB      58              0.0000000000
      7718        58  POPC      H15R           -4.7474805318      -14.7641096634       -2.7789903829  MEMB      58              0.0000000000
      7719        58  POPC      H15S           -3.4595599174      -14.5245487454       -4.1073644160  MEMB      58              0.0000000000
      7720        58  POPC      C216           -4.4935593929      -16.5176092389       -3.8864701730  MEMB      58              0.0000000000
      7721        58  POPC      H16R           -4.2442265144      -16.6931189080       -4.9548109236  MEMB      58              0.0000000000
      7722        58  POPC      H16S           -5.5132865989      -16.8997732544       -3.6664086138  MEMB      58              0.0000000000
      7723        58  POPC      C217           -3.4874398914      -17.1724471975       -2.9248320810  MEMB      58              0.0000000000
      7724        58  POPC      H17R           -2.4994067625      -16.7960978420       -3.2661122474  MEMB      58              0.0000000000
      7725        58  POPC      H17S           -3.3494169018      -18.2731457702       -2.9859363502  MEMB      58              0.0000000000
      7726        58  POPC      C218           -3.6596784784      -16.9482496393       -1.4655238997  MEMB      58              0.0000000000
      7727        58  POPC      H18R           -4.6276256698      -17.2418276561       -1.0059455713  MEMB      58              0.0000000000
      7728        58  POPC      H18S           -3.6298991206      -15.8669953666       -1.2119023359  MEMB      58              0.0000000000
      7729        58  POPC      H18T           -2.9899077151      -17.4613899248       -0.7427405977  MEMB      58              0.0000000000
      7730        58  POPC      C33            -7.8303350813      -21.2384207291      -12.5490384377  MEMB      58              0.0000000000
      7731        58  POPC      H3X            -7.9067488431      -22.1127536396      -13.2302314876  MEMB      58              0.0000000000
      7732        58  POPC      H3Y            -8.7633930764      -21.2070195822      -11.9467619502  MEMB      58              0.0000000000
      7733        58  POPC      C34            -6.6898412509      -21.4215287094      -11.6006908189  MEMB      58              0.0000000000
      7734        58  POPC      H4X            -6.5422844645      -20.5463158857      -10.9324469681  MEMB      58              0.0000000000
      7735        58  POPC      H4Y            -5.7376923172      -21.4877559840      -12.1693275733  MEMB      58              0.0000000000
      7736        58  POPC      C35            -6.7849935596      -22.7583966322      -10.8936360852  MEMB      58              0.0000000000
      7737        58  POPC      H5X            -6.3495454267      -23.4618632540      -11.6351491304  MEMB      58              0.0000000000
      7738        58  POPC      H5Y            -7.8482781480      -23.0621184408      -10.7864009228  MEMB      58              0.0000000000
      7739        58  POPC      C36            -5.9892928107      -22.8877405220       -9.5331276393  MEMB      58              0.0000000000
      7740        58  POPC      H6X            -4.8921087551      -22.7977201377       -9.6828112771  MEMB      58              0.0000000000
      7741        58  POPC      H6Y            -6.0256879387      -23.9085861559       -9.0962398852  MEMB      58              0.0000000000
      7742        58  POPC      C37            -6.5266464905      -22.0240168344       -8.3776580061  MEMB      58              0.0000000000
      7743        58  POPC      H7X            -7.6375476354      -22.0153568504       -8.3896858786  MEMB      58              0.0000000000
      7744        58  POPC      H7Y            -6.1242088117      -21.0703405616       -8.7812254830  MEMB      58              0.0000000000
      7745        58  POPC      C38            -6.0245297771      -22.5235145429       -7.1243677382  MEMB      58              0.0000000000
      7746        58  POPC      H8X            -4.9162322079      -22.4906527975       -7.0542422176  MEMB      58              0.0000000000
      7747        58  POPC      H8Y            -6.2968339742      -23.5507980238       -6.8005467976  MEMB      58              0.0000000000
      7748        58  POPC      C39            -6.6201161986      -21.7074088912       -5.9257359818  MEMB      58              0.0000000000
      7749        58  POPC      H9X            -6.1209113131      -21.9395011830       -4.9607235682  MEMB      58              0.0000000000
      7750        58  POPC      H9Y            -7.7186908258      -21.8564079421       -5.8532497214  MEMB      58              0.0000000000
      7751        58  POPC      C310           -6.3934564196      -20.2068162742       -6.1698250668  MEMB      58              0.0000000000
      7752        58  POPC      H10X           -7.0310244989      -19.8564972009       -7.0095309338  MEMB      58              0.0000000000
      7753        58  POPC      H10Y           -5.3503509040      -19.9473624227       -6.4507811138  MEMB      58              0.0000000000
      7754        58  POPC      C311           -6.8089351243      -19.2047517695       -5.0857708312  MEMB      58              0.0000000000
      7755        58  POPC      H11X           -6.3124984759      -18.2121975957       -5.1378071597  MEMB      58              0.0000000000
      7756        58  POPC      H11Y           -6.2501081982      -19.6410641647       -4.2303968883  MEMB      58              0.0000000000
      7757        58  POPC      C312           -8.3481096680      -18.9567416569       -4.7974339092  MEMB      58              0.0000000000
      7758        58  POPC      H12X           -8.8390665361      -19.9313149632       -4.5888936880  MEMB      58              0.0000000000
      7759        58  POPC      H12Y           -8.5868636634      -18.5469846147       -5.8021316292  MEMB      58              0.0000000000
      7760        58  POPC      C313           -8.6328844156      -17.8873942861       -3.7388451796  MEMB      58              0.0000000000
      7761        58  POPC      H13X           -9.7341698954      -17.8957677303       -3.5924847687  MEMB      58              0.0000000000
      7762        58  POPC      H13Y           -8.3443320059      -16.9138871133       -4.1897790493  MEMB      58              0.0000000000
      7763        58  POPC      C314           -8.0072342834      -18.2365263066       -2.3062044732  MEMB      58              0.0000000000
      7764        58  POPC      H14X           -6.8999391193      -18.1485579045       -2.2842940166  MEMB      58              0.0000000000
      7765        58  POPC      H14Y           -8.1891962724      -19.3130253881       -2.1003861263  MEMB      58              0.0000000000
      7766        58  POPC      C315           -8.6948211891      -17.4969464287       -1.1370629548  MEMB      58              0.0000000000
      7767        58  POPC      H15X           -8.3878569992      -17.9947756540       -0.1924665219  MEMB      58              0.0000000000
      7768        58  POPC      H15Y           -9.7951566068      -17.6479128363       -1.1089162851  MEMB      58              0.0000000000
      7769        58  POPC      C316           -8.4224178606      -16.0214722266       -1.1834858234  MEMB      58              0.0000000000
      7770        58  POPC      H16X           -9.1099497513      -15.5252759342       -0.4655642884  MEMB      58              0.0000000000
      7771        58  POPC      H16Y           -8.7359308222      -15.5339558335       -2.1313038505  MEMB      58              0.0000000000
      7772        58  POPC      H16Z           -7.3746348986      -15.7928579991       -0.8933001300  MEMB      58              0.0000000000
      7773        59  POPC      N               3.5814490144      -15.4363256569      -20.4543161635  MEMB      59              0.0000000000
      7774        59  POPC      C12             3.1394259533      -15.7316963749      -18.9821118874  MEMB      59              0.0000000000
      7775        59  POPC      H12A            2.5840683338      -16.6559022253      -19.0439301957  MEMB      59              0.0000000000
      7776        59  POPC      H12B            2.4983345702      -14.8934165321      -18.7525719188  MEMB      59              0.0000000000
      7777        59  POPC      C13             4.3847315247      -16.5616037367      -20.9703006992  MEMB      59              0.0000000000
      7778        59  POPC      H13A            4.4622028075      -16.4735901989      -22.0439169277  MEMB      59              0.0000000000
      7779        59  POPC      H13B            5.3994113547      -16.5500433820      -20.6005830933  MEMB      59              0.0000000000
      7780        59  POPC      H13C            3.8507304408      -17.4934913201      -20.8570380891  MEMB      59              0.0000000000
      7781        59  POPC      C14             2.3343985033      -15.3820490467      -21.2817224330  MEMB      59              0.0000000000
      7782        59  POPC      H14A            2.6575754188      -15.2417265449      -22.3026370246  MEMB      59              0.0000000000
      7783        59  POPC      H14B            1.8446868822      -16.3432017160      -21.2291103776  MEMB      59              0.0000000000
      7784        59  POPC      H14C            1.7301681981      -14.5883794640      -20.8677244757  MEMB      59              0.0000000000
      7785        59  POPC      C15             4.2908262182      -14.1128739137      -20.4703460586  MEMB      59              0.0000000000
      7786        59  POPC      H15A            3.5468317184      -13.3935865571      -20.1613184226  MEMB      59              0.0000000000
      7787        59  POPC      H15B            4.6135437707      -14.0088488030      -21.4957397591  MEMB      59              0.0000000000
      7788        59  POPC      H15C            5.1633600512      -14.1782157055      -19.8372464497  MEMB      59              0.0000000000
      7789        59  POPC      C11             4.2727340204      -15.7436552628      -17.9099459152  MEMB      59              0.0000000000
      7790        59  POPC      H11A            3.8206376078      -15.8367889779      -16.8993737175  MEMB      59              0.0000000000
      7791        59  POPC      H11B            4.8974941090      -14.8270206787      -17.9714043873  MEMB      59              0.0000000000
      7792        59  POPC      P               4.7510415197      -18.3439366997      -17.8670858613  MEMB      59              0.0000000000
      7793        59  POPC      O13             5.7222744302      -19.2890689937      -18.4471678096  MEMB      59              0.0000000000
      7794        59  POPC      O14             3.3551238281      -18.5034186472      -18.2857551776  MEMB      59              0.0000000000
      7795        59  POPC      O12             5.1906531037      -16.8367449736      -18.0954908602  MEMB      59              0.0000000000
      7796        59  POPC      O11             4.9566834263      -18.4252618915      -16.2357571833  MEMB      59              0.0000000000
      7797        59  POPC      C1              6.0819032909      -17.8485167122      -15.5499312480  MEMB      59              0.0000000000
      7798        59  POPC      HA              6.3037325853      -16.8817539647      -16.0504135444  MEMB      59              0.0000000000
      7799        59  POPC      HB              6.9331378218      -18.5583103634      -15.6268310062  MEMB      59              0.0000000000
      7800        59  POPC      C2              5.8470725008      -17.6037799276      -13.9982081133  MEMB      59              0.0000000000
      7801        59  POPC      HS              6.7037321272      -17.0355809449      -13.5767757537  MEMB      59              0.0000000000
      7802        59  POPC      O21             5.7417305930      -18.7958284325      -13.2366789854  MEMB      59              0.0000000000
      7803        59  POPC      C21             5.7742670763      -18.7656959565      -11.9244395279  MEMB      59              0.0000000000
      7804        59  POPC      O22             5.6038369672      -17.7480648013      -11.2038588122  MEMB      59              0.0000000000
      7805        59  POPC      C22             6.1439703482      -20.0869398085      -11.2760799741  MEMB      59              0.0000000000
      7806        59  POPC      H2R             6.5763402787      -20.7457050633      -12.0592822986  MEMB      59              0.0000000000
      7807        59  POPC      H2S             5.1336557219      -20.4799074964      -11.0328473234  MEMB      59              0.0000000000
      7808        59  POPC      C3              4.4940815514      -16.7524639082      -14.0116620468  MEMB      59              0.0000000000
      7809        59  POPC      HX              3.9119655246      -16.7521311194      -14.9579504838  MEMB      59              0.0000000000
      7810        59  POPC      HY              4.9058132555      -15.7212639693      -13.9739170504  MEMB      59              0.0000000000
      7811        59  POPC      O31             3.7216663884      -16.8484915874      -12.8134471168  MEMB      59              0.0000000000
      7812        59  POPC      C31             2.7801388497      -17.8391636555      -12.7887409557  MEMB      59              0.0000000000
      7813        59  POPC      O32             2.5510762784      -18.6100390166      -13.6794614301  MEMB      59              0.0000000000
      7814        59  POPC      C32             2.0961829895      -17.8315940305      -11.4130263942  MEMB      59              0.0000000000
      7815        59  POPC      H2X             1.4640210484      -16.9258939858      -11.2930269023  MEMB      59              0.0000000000
      7816        59  POPC      H2Y             2.8682604804      -17.8035540551      -10.6146334621  MEMB      59              0.0000000000
      7817        59  POPC      C23             7.2763132040      -19.9630257592      -10.1395177533  MEMB      59              0.0000000000
      7818        59  POPC      H3R             8.0998637420      -19.3166740333      -10.5114251353  MEMB      59              0.0000000000
      7819        59  POPC      H3S             7.6239367605      -21.0095861114      -10.0046463641  MEMB      59              0.0000000000
      7820        59  POPC      C24             6.6388385515      -19.5559334668       -8.7821184199  MEMB      59              0.0000000000
      7821        59  POPC      H4R             5.7971030833      -20.2540838370       -8.5861885827  MEMB      59              0.0000000000
      7822        59  POPC      H4S             6.2121053035      -18.5384864477       -8.9125863186  MEMB      59              0.0000000000
      7823        59  POPC      C25             7.6292858290      -19.4015273404       -7.6445047070  MEMB      59              0.0000000000
      7824        59  POPC      H5R             8.4973987615      -18.8200578362       -8.0221213533  MEMB      59              0.0000000000
      7825        59  POPC      H5S             7.9060984191      -20.4371479947       -7.3526387580  MEMB      59              0.0000000000
      7826        59  POPC      C26             7.2038092288      -18.5496804533       -6.4531643353  MEMB      59              0.0000000000
      7827        59  POPC      H6R             7.9809119218      -18.8421511183       -5.7149950590  MEMB      59              0.0000000000
      7828        59  POPC      H6S             6.2331585270      -18.8912529276       -6.0342526821  MEMB      59              0.0000000000
      7829        59  POPC      C27             7.2185853243      -17.0246302135       -6.5896122538  MEMB      59              0.0000000000
      7830        59  POPC      H7R             6.4037584912      -16.8056280149       -7.3123955398  MEMB      59              0.0000000000
      7831        59  POPC      H7S             8.1887949766      -16.7037259607       -7.0255414756  MEMB      59              0.0000000000
      7832        59  POPC      C28             7.0998992802      -16.1506612159       -5.3467100883  MEMB      59              0.0000000000
      7833        59  POPC      H8R             7.8518270708      -16.5073842634       -4.6107250372  MEMB      59              0.0000000000
      7834        59  POPC      H8S             6.1256205035      -16.3934515409       -4.8711527374  MEMB      59              0.0000000000
      7835        59  POPC      C29             7.2930357933      -14.6563509958       -5.5344816462  MEMB      59              0.0000000000
      7836        59  POPC      H91             7.9473023392      -14.4768392674       -6.4003403390  MEMB      59              0.0000000000
      7837        59  POPC      C210            6.6630962583      -13.6677120311       -4.9196592729  MEMB      59              0.0000000000
      7838        59  POPC      H101            6.8979452067      -12.6201288980       -5.1592748902  MEMB      59              0.0000000000
      7839        59  POPC      C211            5.6037474976      -13.8313148041       -3.9118706137  MEMB      59              0.0000000000
      7840        59  POPC      H11R            6.1653436669      -14.3122585329       -3.0826402487  MEMB      59              0.0000000000
      7841        59  POPC      H11S            4.8625719669      -14.5681346223       -4.2888013117  MEMB      59              0.0000000000
      7842        59  POPC      C212            4.9009956554      -12.5021900087       -3.3618533855  MEMB      59              0.0000000000
      7843        59  POPC      H12R            4.8872193320      -11.7308323406       -4.1613145495  MEMB      59              0.0000000000
      7844        59  POPC      H12S            5.5089774289      -12.0273920177       -2.5623236395  MEMB      59              0.0000000000
      7845        59  POPC      C213            3.5046914445      -12.7832500248       -2.8710982083  MEMB      59              0.0000000000
      7846        59  POPC      H13R            3.0065119231      -13.6229672834       -3.4012041307  MEMB      59              0.0000000000
      7847        59  POPC      H13S            2.9128860949      -11.8474070602       -2.9621231431  MEMB      59              0.0000000000
      7848        59  POPC      C214            3.4911965946      -13.0582294614       -1.3126100924  MEMB      59              0.0000000000
      7849        59  POPC      H14R            3.5855507894      -12.0334552188       -0.8939724132  MEMB      59              0.0000000000
      7850        59  POPC      H14S            4.3343075059      -13.6381910422       -0.8800247749  MEMB      59              0.0000000000
      7851        59  POPC      C215            2.0993879075      -13.6497555149       -0.9195255144  MEMB      59              0.0000000000
      7852        59  POPC      H15R            1.8333931635      -14.3702431833       -1.7223114137  MEMB      59              0.0000000000
      7853        59  POPC      H15S            1.3068623929      -12.8797697195       -1.0350507073  MEMB      59              0.0000000000
      7854        59  POPC      C216            2.1267303505      -14.2639725337        0.5007263608  MEMB      59              0.0000000000
      7855        59  POPC      H16R            2.4875557461      -15.3140059337        0.4612795512  MEMB      59              0.0000000000
      7856        59  POPC      H16S            1.0790640751      -14.3688263179        0.8553001079  MEMB      59              0.0000000000
      7857        59  POPC      C217            2.9562267166      -13.4422133958        1.4925310451  MEMB      59              0.0000000000
      7858        59  POPC      H17R            4.0474141055      -13.4772834900        1.2866130484  MEMB      59              0.0000000000
      7859        59  POPC      H17S            2.8562740632      -14.0022500064        2.4468307483  MEMB      59              0.0000000000
      7860        59  POPC      C218            2.5293567650      -12.0232329560        1.8893137798  MEMB      59              0.0000000000
      7861        59  POPC      H18R            2.5337004269      -11.3901894486        0.9763191750  MEMB      59              0.0000000000
      7862        59  POPC      H18S            3.1352306142      -11.6202846509        2.7288800379  MEMB      59              0.0000000000
      7863        59  POPC      H18T            1.5058466682      -12.0739729229        2.3184694023  MEMB      59              0.0000000000
      7864        59  POPC      C33             1.3239498943      -19.1985498092      -11.2497502514  MEMB      59              0.0000000000
      7865        59  POPC      H3X             2.1650175458      -19.9180788268      -11.3456889613  MEMB      59              0.0000000000
      7866        59  POPC      H3Y             0.5313853391      -19.2150508619      -12.0281401766  MEMB      59              0.0000000000
      7867        59  POPC      C34             0.6660954112      -19.3428164377       -9.9024240714  MEMB      59              0.0000000000
      7868        59  POPC      H4X            -0.0004770544      -20.2270767188       -9.9923441141  MEMB      59              0.0000000000
      7869        59  POPC      H4Y            -0.0942678450      -18.5393172287      -10.0051753803  MEMB      59              0.0000000000
      7870        59  POPC      C35             1.4718820131      -19.2802058219       -8.6847610101  MEMB      59              0.0000000000
      7871        59  POPC      H5X             0.8425619341      -19.0998741946       -7.7871217187  MEMB      59              0.0000000000
      7872        59  POPC      H5Y             2.0649899517      -18.3414678056       -8.7210248961  MEMB      59              0.0000000000
      7873        59  POPC      C36             2.4588575498      -20.4537603293       -8.4189500252  MEMB      59              0.0000000000
      7874        59  POPC      H6X             3.2027242068      -20.4275281226       -9.2437499874  MEMB      59              0.0000000000
      7875        59  POPC      H6Y             1.9242191177      -21.4198325334       -8.5421869886  MEMB      59              0.0000000000
      7876        59  POPC      C37             3.1405013334      -20.3641190692       -7.0561890542  MEMB      59              0.0000000000
      7877        59  POPC      H7X             3.5475068648      -19.3468308028       -6.8723618785  MEMB      59              0.0000000000
      7878        59  POPC      H7Y             4.0347230863      -21.0209469724       -7.1133334888  MEMB      59              0.0000000000
      7879        59  POPC      C38             2.0983519532      -20.7415862924       -6.0210334486  MEMB      59              0.0000000000
      7880        59  POPC      H8X             1.6548370340      -21.7379989428       -6.2326400308  MEMB      59              0.0000000000
      7881        59  POPC      H8Y             1.2608516780      -20.0117082949       -6.0071648903  MEMB      59              0.0000000000
      7882        59  POPC      C39             2.5182501733      -20.9548367819       -4.6016856998  MEMB      59              0.0000000000
      7883        59  POPC      H9X             3.2145261090      -21.8181446938       -4.5367195237  MEMB      59              0.0000000000
      7884        59  POPC      H9Y             1.5771172173      -21.1284122413       -4.0373621999  MEMB      59              0.0000000000
      7885        59  POPC      C310            3.2332817371      -19.7216757825       -3.9204728044  MEMB      59              0.0000000000
      7886        59  POPC      H10X            2.5396002129      -18.8540847002       -3.9407912262  MEMB      59              0.0000000000
      7887        59  POPC      H10Y            4.1229027741      -19.4972931529       -4.5470086762  MEMB      59              0.0000000000
      7888        59  POPC      C311            3.4290110910      -19.8720321619       -2.3392455936  MEMB      59              0.0000000000
      7889        59  POPC      H11X            4.1657414241      -20.6968065662       -2.2329596866  MEMB      59              0.0000000000
      7890        59  POPC      H11Y            2.4741127074      -20.2360261039       -1.9033570619  MEMB      59              0.0000000000
      7891        59  POPC      C312            3.9036758438      -18.6316516163       -1.6025041644  MEMB      59              0.0000000000
      7892        59  POPC      H12X            4.4759635946      -18.9662353759       -0.7109544524  MEMB      59              0.0000000000
      7893        59  POPC      H12Y            3.0887411648      -17.9546364467       -1.2680597506  MEMB      59              0.0000000000
      7894        59  POPC      C313            4.9540697634      -17.8453012802       -2.4482286852  MEMB      59              0.0000000000
      7895        59  POPC      H13X            4.3863555322      -17.2753436573       -3.2144983260  MEMB      59              0.0000000000
      7896        59  POPC      H13Y            5.5714914709      -18.6525479629       -2.8970752711  MEMB      59              0.0000000000
      7897        59  POPC      C314            5.8140127828      -16.8292639860       -1.7731868215  MEMB      59              0.0000000000
      7898        59  POPC      H14X            5.1030783579      -16.0303836517       -1.4720506835  MEMB      59              0.0000000000
      7899        59  POPC      H14Y            6.5674401545      -16.4218210045       -2.4807591410  MEMB      59              0.0000000000
      7900        59  POPC      C315            6.6572306005      -17.4030111220       -0.6139476699  MEMB      59              0.0000000000
      7901        59  POPC      H15X            7.3581424610      -18.1480495491       -1.0474910054  MEMB      59              0.0000000000
      7902        59  POPC      H15Y            6.0563802357      -17.9931509370        0.1106452588  MEMB      59              0.0000000000
      7903        59  POPC      C316            7.4389882720      -16.3478295472        0.2143717927  MEMB      59              0.0000000000
      7904        59  POPC      H16X            8.1763453760      -16.8952451648        0.8396418811  MEMB      59              0.0000000000
      7905        59  POPC      H16Y            6.7685132485      -15.7143451203        0.8336304863  MEMB      59              0.0000000000
      7906        59  POPC      H16Z            7.9770952980      -15.6694539737       -0.4817361944  MEMB      59              0.0000000000
      7907        60  POPC      N              10.4004992354      -15.2319191664      -19.0716806274  MEMB      60              0.0000000000
      7908        60  POPC      C12            11.2215016869      -15.9228632879      -20.1333082140  MEMB      60              0.0000000000
      7909        60  POPC      H12A           10.7475057225      -15.7529870220      -21.0887503688  MEMB      60              0.0000000000
      7910        60  POPC      H12B           11.0594418733      -16.9352598158      -19.7939118606  MEMB      60              0.0000000000
      7911        60  POPC      C13            10.2811244856      -13.7801620347      -19.3004695205  MEMB      60              0.0000000000
      7912        60  POPC      H13A            9.9033736272      -13.5844338238      -20.2931400627  MEMB      60              0.0000000000
      7913        60  POPC      H13B            9.7082175350      -13.2226796551      -18.5742526486  MEMB      60              0.0000000000
      7914        60  POPC      H13C           11.3009471577      -13.4282268480      -19.2504346771  MEMB      60              0.0000000000
      7915        60  POPC      C14             9.0677144294      -15.9715240090      -19.1060767036  MEMB      60              0.0000000000
      7916        60  POPC      H14A            8.8797807477      -16.0126525251      -20.1688040094  MEMB      60              0.0000000000
      7917        60  POPC      H14B            9.1665784847      -17.0008854242      -18.7945625076  MEMB      60              0.0000000000
      7918        60  POPC      H14C            8.3899455289      -15.3836377473      -18.5048952676  MEMB      60              0.0000000000
      7919        60  POPC      C15            11.0980699716      -15.4414716697      -17.6922948540  MEMB      60              0.0000000000
      7920        60  POPC      H15A           11.2047421561      -16.5160203919      -17.6731655937  MEMB      60              0.0000000000
      7921        60  POPC      H15B           10.4907892124      -15.0461615866      -16.8914577671  MEMB      60              0.0000000000
      7922        60  POPC      H15C           12.0414028823      -14.9169069787      -17.6554851235  MEMB      60              0.0000000000
      7923        60  POPC      C11            12.7539958689      -15.6778808703      -20.2449696514  MEMB      60              0.0000000000
      7924        60  POPC      H11A           12.8554886698      -14.5776826226      -20.1284192099  MEMB      60              0.0000000000
      7925        60  POPC      H11B           12.9251850681      -15.9847043110      -21.2989499418  MEMB      60              0.0000000000
      7926        60  POPC      P              14.8414407403      -15.9489409500      -18.6830786425  MEMB      60              0.0000000000
      7927        60  POPC      O13            15.7361372938      -15.4550528082      -19.7721881205  MEMB      60              0.0000000000
      7928        60  POPC      O14            15.4225131539      -17.0412185698      -17.8013446360  MEMB      60              0.0000000000
      7929        60  POPC      O12            13.4773890220      -16.4100465407      -19.3167848296  MEMB      60              0.0000000000
      7930        60  POPC      O11            14.3624296419      -14.7242154548      -17.8778041969  MEMB      60              0.0000000000
      7931        60  POPC      C1             15.2009783164      -13.6297808677      -17.6318692467  MEMB      60              0.0000000000
      7932        60  POPC      HA             14.5679662609      -12.7290369122      -17.7811245196  MEMB      60              0.0000000000
      7933        60  POPC      HB             16.0686789851      -13.5572240257      -18.3219070153  MEMB      60              0.0000000000
      7934        60  POPC      C2             15.8240647412      -13.7756004871      -16.1474494187  MEMB      60              0.0000000000
      7935        60  POPC      HS             16.7976320597      -14.3064499655      -16.2159061798  MEMB      60              0.0000000000
      7936        60  POPC      O21            14.7457618159      -14.3616390143      -15.3786422204  MEMB      60              0.0000000000
      7937        60  POPC      C21            15.1874628140      -15.3155185508      -14.4696698672  MEMB      60              0.0000000000
      7938        60  POPC      O22            16.3193218905      -15.7759655455      -14.4393203606  MEMB      60              0.0000000000
      7939        60  POPC      C22            13.9661005088      -15.9037387713      -13.7502658791  MEMB      60              0.0000000000
      7940        60  POPC      H2R            13.6350421062      -16.7825017757      -14.3439807370  MEMB      60              0.0000000000
      7941        60  POPC      H2S            13.1319669788      -15.1801017853      -13.6282348643  MEMB      60              0.0000000000
      7942        60  POPC      C3             16.1713521912      -12.3850825173      -15.5095303259  MEMB      60              0.0000000000
      7943        60  POPC      HX             15.4178305308      -11.6536131567      -15.8721300198  MEMB      60              0.0000000000
      7944        60  POPC      HY             17.1211668460      -11.9168494544      -15.8455817386  MEMB      60              0.0000000000
      7945        60  POPC      O31            16.1059438310      -12.4264624585      -14.0987749624  MEMB      60              0.0000000000
      7946        60  POPC      C31            17.2298964041      -12.6272508115      -13.4551826359  MEMB      60              0.0000000000
      7947        60  POPC      O32            18.2704797157      -12.9338227635      -14.0080031809  MEMB      60              0.0000000000
      7948        60  POPC      C32            17.0193448660      -12.3742372654      -11.9924790894  MEMB      60              0.0000000000
      7949        60  POPC      H2X            15.9591779021      -12.6205357205      -11.7695349263  MEMB      60              0.0000000000
      7950        60  POPC      H2Y            16.9923376108      -11.2689209166      -11.8835421553  MEMB      60              0.0000000000
      7951        60  POPC      C23            14.3212264022      -16.4675338978      -12.3780872750  MEMB      60              0.0000000000
      7952        60  POPC      H3R            14.8750749208      -15.6747814214      -11.8311720959  MEMB      60              0.0000000000
      7953        60  POPC      H3S            14.9543833726      -17.3790347747      -12.4290706106  MEMB      60              0.0000000000
      7954        60  POPC      C24            13.0711728935      -16.7795374348      -11.5338094734  MEMB      60              0.0000000000
      7955        60  POPC      H4R            13.5515875851      -17.0900965967      -10.5814042284  MEMB      60              0.0000000000
      7956        60  POPC      H4S            12.6744884951      -17.7730348240      -11.8336849815  MEMB      60              0.0000000000
      7957        60  POPC      C25            11.9988785385      -15.7083250199      -11.2974753762  MEMB      60              0.0000000000
      7958        60  POPC      H5R            11.3143271732      -16.1761968830      -10.5580122772  MEMB      60              0.0000000000
      7959        60  POPC      H5S            11.6041708094      -15.5882077375      -12.3290270352  MEMB      60              0.0000000000
      7960        60  POPC      C26            12.7310800777      -14.5493030366      -10.6487722245  MEMB      60              0.0000000000
      7961        60  POPC      H6R            13.4388887569      -14.0199172182      -11.3218836526  MEMB      60              0.0000000000
      7962        60  POPC      H6S            13.0688423101      -14.9541627459       -9.6708532604  MEMB      60              0.0000000000
      7963        60  POPC      C27            11.6359074554      -13.4636664674      -10.1583079505  MEMB      60              0.0000000000
      7964        60  POPC      H7R            11.0050619687      -13.9894552700       -9.4100427977  MEMB      60              0.0000000000
      7965        60  POPC      H7S            11.0124601444      -13.2416600575      -11.0506913839  MEMB      60              0.0000000000
      7966        60  POPC      C28            12.2425321044      -12.1688104026       -9.5975589271  MEMB      60              0.0000000000
      7967        60  POPC      H8R            12.5856614577      -11.5487300195      -10.4531775163  MEMB      60              0.0000000000
      7968        60  POPC      H8S            13.1242094852      -12.4707952263       -8.9927688043  MEMB      60              0.0000000000
      7969        60  POPC      C29            11.2778257052      -11.3901793892       -8.8351148805  MEMB      60              0.0000000000
      7970        60  POPC      H91            10.6919664120      -10.6873303942       -9.4456654388  MEMB      60              0.0000000000
      7971        60  POPC      C210           11.0815062710      -11.4768014234       -7.5070077404  MEMB      60              0.0000000000
      7972        60  POPC      H101           10.2602948900      -10.8890614776       -7.0709189641  MEMB      60              0.0000000000
      7973        60  POPC      C211           11.7217095755      -12.3447783745       -6.4586130129  MEMB      60              0.0000000000
      7974        60  POPC      H11R           12.4156131177      -13.1244038571       -6.8394054705  MEMB      60              0.0000000000
      7975        60  POPC      H11S           10.8788876902      -12.9323934850       -6.0359067740  MEMB      60              0.0000000000
      7976        60  POPC      C212           12.4599377014      -11.5760396662       -5.2466456590  MEMB      60              0.0000000000
      7977        60  POPC      H12R           11.7352407535      -10.8177502191       -4.8804045221  MEMB      60              0.0000000000
      7978        60  POPC      H12S           13.2997356496      -10.9643707849       -5.6402466804  MEMB      60              0.0000000000
      7979        60  POPC      C213           12.8046028503      -12.4258418102       -4.1317130101  MEMB      60              0.0000000000
      7980        60  POPC      H13R           13.6876937579      -13.0281383483       -4.4345504023  MEMB      60              0.0000000000
      7981        60  POPC      H13S           12.0090257225      -13.1527521914       -3.8615658657  MEMB      60              0.0000000000
      7982        60  POPC      C214           13.0458430158      -11.6320923029       -2.8572100360  MEMB      60              0.0000000000
      7983        60  POPC      H14R           12.1300506121      -11.0392538935       -2.6470005702  MEMB      60              0.0000000000
      7984        60  POPC      H14S           13.8643192780      -10.8886637239       -2.9655227101  MEMB      60              0.0000000000
      7985        60  POPC      C215           13.3091951318      -12.4807102240       -1.5889195350  MEMB      60              0.0000000000
      7986        60  POPC      H15R           14.1915701167      -13.1119345119       -1.8282738320  MEMB      60              0.0000000000
      7987        60  POPC      H15S           12.5453355434      -13.2417737755       -1.3212963537  MEMB      60              0.0000000000
      7988        60  POPC      C216           13.5789038356      -11.7373225344       -0.2468907852  MEMB      60              0.0000000000
      7989        60  POPC      H16R           12.8043780575      -10.9624267600       -0.0625868000  MEMB      60              0.0000000000
      7990        60  POPC      H16S           14.4654555734      -11.0695357323       -0.2959596959  MEMB      60              0.0000000000
      7991        60  POPC      C217           13.7674711622      -12.7204518286        0.8923736449  MEMB      60              0.0000000000
      7992        60  POPC      H17R           14.7282563738      -13.2443806637        0.7007706281  MEMB      60              0.0000000000
      7993        60  POPC      H17S           13.0187323390      -13.5289864060        1.0337345261  MEMB      60              0.0000000000
      7994        60  POPC      C218           14.1289946087      -12.0615750469        2.2586843909  MEMB      60              0.0000000000
      7995        60  POPC      H18R           14.9865377535      -11.3794729651        2.0751701947  MEMB      60              0.0000000000
      7996        60  POPC      H18S           14.4220526778      -12.9301523077        2.8863877225  MEMB      60              0.0000000000
      7997        60  POPC      H18T           13.2371781468      -11.5135686419        2.6310714902  MEMB      60              0.0000000000
      7998        60  POPC      C33            18.0712572701      -13.1845128041      -11.1687947870  MEMB      60              0.0000000000
      7999        60  POPC      H3X            19.0576403467      -13.0207638632      -11.6531044095  MEMB      60              0.0000000000
      8000        60  POPC      H3Y            17.8045806904      -14.2583580053      -11.2691029940  MEMB      60              0.0000000000
      8001        60  POPC      C34            18.1031628192      -12.8853754930       -9.6900008381  MEMB      60              0.0000000000
      8002        60  POPC      H4X            18.2740215362      -11.7955390687       -9.5581475890  MEMB      60              0.0000000000
      8003        60  POPC      H4Y            19.0497757447      -13.3619166889       -9.3566035695  MEMB      60              0.0000000000
      8004        60  POPC      C35            16.9349932677      -13.4171504719       -8.8401879463  MEMB      60              0.0000000000
      8005        60  POPC      H5X            16.8931061426      -14.5224165363       -8.7355309096  MEMB      60              0.0000000000
      8006        60  POPC      H5Y            15.9401018949      -13.1956734989       -9.2822961401  MEMB      60              0.0000000000
      8007        60  POPC      C36            17.0499941051      -13.0267363511       -7.3959730208  MEMB      60              0.0000000000
      8008        60  POPC      H6X            17.0169225399      -11.9356104947       -7.1894009235  MEMB      60              0.0000000000
      8009        60  POPC      H6Y            17.9886975167      -13.3947511850       -6.9293656498  MEMB      60              0.0000000000
      8010        60  POPC      C37            15.8057088887      -13.5727588183       -6.6263162386  MEMB      60              0.0000000000
      8011        60  POPC      H7X            14.8665037256      -13.2423976853       -7.1193444278  MEMB      60              0.0000000000
      8012        60  POPC      H7Y            15.8574256617      -13.1046563203       -5.6200730121  MEMB      60              0.0000000000
      8013        60  POPC      C38            15.8351468272      -15.1281954282       -6.4365500016  MEMB      60              0.0000000000
      8014        60  POPC      H8X            16.7376896571      -15.3669798234       -5.8342879041  MEMB      60              0.0000000000
      8015        60  POPC      H8Y            15.8288489730      -15.7238026267       -7.3743847164  MEMB      60              0.0000000000
      8016        60  POPC      C39            14.6709877456      -15.7587846383       -5.6769328393  MEMB      60              0.0000000000
      8017        60  POPC      H9X            14.2897691549      -15.0589845410       -4.9028051739  MEMB      60              0.0000000000
      8018        60  POPC      H9Y            15.0117488253      -16.6131258181       -5.0537917970  MEMB      60              0.0000000000
      8019        60  POPC      C310           13.4876328553      -16.0347519683       -6.6089867127  MEMB      60              0.0000000000
      8020        60  POPC      H10X           13.7049642386      -16.8481276874       -7.3339061855  MEMB      60              0.0000000000
      8021        60  POPC      H10Y           13.3277737823      -15.1279582097       -7.2306711461  MEMB      60              0.0000000000
      8022        60  POPC      C311           12.1670133030      -16.3063424377       -5.8639000279  MEMB      60              0.0000000000
      8023        60  POPC      H11X           11.2912893898      -16.2929028121       -6.5474550045  MEMB      60              0.0000000000
      8024        60  POPC      H11Y           11.8924028421      -15.4575909410       -5.2016829455  MEMB      60              0.0000000000
      8025        60  POPC      C312           12.0363749010      -17.6109022631       -5.0504503401  MEMB      60              0.0000000000
      8026        60  POPC      H12X           12.6605664653      -18.3559068924       -5.5886645412  MEMB      60              0.0000000000
      8027        60  POPC      H12Y           10.9437906978      -17.8110920734       -5.0279806000  MEMB      60              0.0000000000
      8028        60  POPC      C313           12.5712111296      -17.6308620666       -3.5808836989  MEMB      60              0.0000000000
      8029        60  POPC      H13X           13.6777190499      -17.6634892912       -3.6752078951  MEMB      60              0.0000000000
      8030        60  POPC      H13Y           12.1546661033      -18.5808306584       -3.1829259395  MEMB      60              0.0000000000
      8031        60  POPC      C314           12.1714115022      -16.5453289562       -2.5291897593  MEMB      60              0.0000000000
      8032        60  POPC      H14X           11.0912524682      -16.4858768087       -2.2761231274  MEMB      60              0.0000000000
      8033        60  POPC      H14Y           12.4820554930      -15.5696525804       -2.9603240015  MEMB      60              0.0000000000
      8034        60  POPC      C315           12.7675955750      -16.7461988206       -1.1127288914  MEMB      60              0.0000000000
      8035        60  POPC      H15X           12.4536928850      -15.8960814684       -0.4700106298  MEMB      60              0.0000000000
      8036        60  POPC      H15Y           13.8636579226      -16.6435171913       -1.2624777480  MEMB      60              0.0000000000
      8037        60  POPC      C316           12.3373663860      -18.0688542003       -0.4656662585  MEMB      60              0.0000000000
      8038        60  POPC      H16X           12.7603689336      -18.9742042720       -0.9511864720  MEMB      60              0.0000000000
      8039        60  POPC      H16Y           11.2266741469      -18.0754176305       -0.4909696068  MEMB      60              0.0000000000
      8040        60  POPC      H16Z           12.8152759850      -18.2149627378        0.5265927360  MEMB      60              0.0000000000
      8041        61  POPC      N             -20.6890217620        2.2446346370      -20.1936801392  MEMB      61              0.0000000000
      8042        61  POPC      C12           -21.2080712540        2.7462011828      -18.7887185588  MEMB      61              0.0000000000
      8043        61  POPC      H12A          -20.4575539096        3.4621756107      -18.4878793333  MEMB      61              0.0000000000
      8044        61  POPC      H12B          -21.1950356356        1.8910866086      -18.1291663351  MEMB      61              0.0000000000
      8045        61  POPC      C13           -20.2609693691        3.4857058543      -20.9168840179  MEMB      61              0.0000000000
      8046        61  POPC      H13A          -19.7375883354        3.2191092230      -21.8231940637  MEMB      61              0.0000000000
      8047        61  POPC      H13B          -21.2041717615        3.9859425127      -21.0797724996  MEMB      61              0.0000000000
      8048        61  POPC      H13C          -19.5946634034        4.1192893103      -20.3503080614  MEMB      61              0.0000000000
      8049        61  POPC      C14           -19.4940541293        1.2838076949      -20.0433733706  MEMB      61              0.0000000000
      8050        61  POPC      H14A          -19.8439902769        0.5557961002      -19.3264746592  MEMB      61              0.0000000000
      8051        61  POPC      H14B          -19.3646530466        0.8157072470      -21.0080170354  MEMB      61              0.0000000000
      8052        61  POPC      H14C          -18.5824582871        1.7341768098      -19.6792849127  MEMB      61              0.0000000000
      8053        61  POPC      C15           -21.7457030818        1.4095798414      -20.9122037158  MEMB      61              0.0000000000
      8054        61  POPC      H15A          -22.7355984430        1.7815126852      -20.6927197124  MEMB      61              0.0000000000
      8055        61  POPC      H15B          -21.6235250685        0.4473374208      -20.4372699756  MEMB      61              0.0000000000
      8056        61  POPC      H15C          -21.4960193056        1.1988784469      -21.9416030862  MEMB      61              0.0000000000
      8057        61  POPC      C11           -22.5285820774        3.4465324999      -18.7657907922  MEMB      61              0.0000000000
      8058        61  POPC      H11A          -22.5938961313        4.3213309841      -19.4475403614  MEMB      61              0.0000000000
      8059        61  POPC      H11B          -22.5852649410        3.9533529833      -17.7787542727  MEMB      61              0.0000000000
      8060        61  POPC      P             -24.5124512079        1.9984459585      -17.8735238755  MEMB      61              0.0000000000
      8061        61  POPC      O13           -25.7208318665        1.3755691517      -18.4238415508  MEMB      61              0.0000000000
      8062        61  POPC      O14           -24.7648745611        3.0997570123      -16.8876856335  MEMB      61              0.0000000000
      8063        61  POPC      O12           -23.6779537791        2.5708353433      -19.0841804852  MEMB      61              0.0000000000
      8064        61  POPC      O11           -23.5927705062        0.9563524022      -17.1101178559  MEMB      61              0.0000000000
      8065        61  POPC      C1            -23.1396921209       -0.2439289220      -17.7258234397  MEMB      61              0.0000000000
      8066        61  POPC      HA            -22.2306679970        0.0309801719      -18.3023830039  MEMB      61              0.0000000000
      8067        61  POPC      HB            -23.9889023325       -0.7218366468      -18.2594593833  MEMB      61              0.0000000000
      8068        61  POPC      C2            -22.5904746255       -1.2224693336      -16.6471520369  MEMB      61              0.0000000000
      8069        61  POPC      HS            -22.4394579300       -2.1780191461      -17.1934482465  MEMB      61              0.0000000000
      8070        61  POPC      O21           -23.6224299366       -1.4239775866      -15.6515839529  MEMB      61              0.0000000000
      8071        61  POPC      C21           -24.6678417111       -2.0765990794      -16.1036753336  MEMB      61              0.0000000000
      8072        61  POPC      O22           -24.7485643652       -2.6623238060      -17.1648206498  MEMB      61              0.0000000000
      8073        61  POPC      C22           -25.8751048971       -2.0411062987      -15.1458962053  MEMB      61              0.0000000000
      8074        61  POPC      H2R           -26.2034923015       -3.0866974039      -14.9636269615  MEMB      61              0.0000000000
      8075        61  POPC      H2S           -26.7016683858       -1.4139089506      -15.5430574492  MEMB      61              0.0000000000
      8076        61  POPC      C3            -21.3578282046       -0.7177915184      -15.8697243838  MEMB      61              0.0000000000
      8077        61  POPC      HX            -20.5336778570       -0.4696839080      -16.5722482311  MEMB      61              0.0000000000
      8078        61  POPC      HY            -20.9809377996       -1.5766191168      -15.2741656968  MEMB      61              0.0000000000
      8079        61  POPC      O31           -21.6056514384        0.4082980926      -15.0176166793  MEMB      61              0.0000000000
      8080        61  POPC      C31           -20.6363541621        1.1706417307      -14.6996639212  MEMB      61              0.0000000000
      8081        61  POPC      O32           -19.4636826435        1.0697123898      -15.1159226089  MEMB      61              0.0000000000
      8082        61  POPC      C32           -21.1615839773        2.2262324972      -13.7294769627  MEMB      61              0.0000000000
      8083        61  POPC      H2X           -22.1795708595        2.5538944909      -14.0305777427  MEMB      61              0.0000000000
      8084        61  POPC      H2Y           -20.4748265635        3.0979259364      -13.6762237548  MEMB      61              0.0000000000
      8085        61  POPC      C23           -25.4952566947       -1.7051264945      -13.6521314379  MEMB      61              0.0000000000
      8086        61  POPC      H3R           -26.3518631360       -1.5881748140      -12.9543713655  MEMB      61              0.0000000000
      8087        61  POPC      H3S           -24.8159889183       -0.8289382045      -13.5799484853  MEMB      61              0.0000000000
      8088        61  POPC      C24           -24.5189003168       -2.7326810915      -13.0427495316  MEMB      61              0.0000000000
      8089        61  POPC      H4R           -23.6010064521       -2.7977394317      -13.6652924575  MEMB      61              0.0000000000
      8090        61  POPC      H4S           -25.0816477183       -3.6838823813      -13.1561165235  MEMB      61              0.0000000000
      8091        61  POPC      C25           -24.0950701837       -2.4063788308      -11.5626689236  MEMB      61              0.0000000000
      8092        61  POPC      H5R           -23.4302324019       -1.5167910788      -11.5934177432  MEMB      61              0.0000000000
      8093        61  POPC      H5S           -23.4702813210       -3.2749957692      -11.2635629672  MEMB      61              0.0000000000
      8094        61  POPC      C26           -25.2679179521       -2.2146405244      -10.6257242070  MEMB      61              0.0000000000
      8095        61  POPC      H6R           -25.8730650917       -3.1447489228      -10.6806403189  MEMB      61              0.0000000000
      8096        61  POPC      H6S           -25.8796307472       -1.3369739584      -10.9254409402  MEMB      61              0.0000000000
      8097        61  POPC      C27           -24.7709552761       -1.8903752724       -9.2830366547  MEMB      61              0.0000000000
      8098        61  POPC      H7R           -24.0502076556       -1.0448911028       -9.2822227805  MEMB      61              0.0000000000
      8099        61  POPC      H7S           -24.2337449453       -2.7457765979       -8.8204191830  MEMB      61              0.0000000000
      8100        61  POPC      C28           -25.8993154490       -1.5414361838       -8.2623898800  MEMB      61              0.0000000000
      8101        61  POPC      H8R           -25.3529137090       -1.3556734860       -7.3130435377  MEMB      61              0.0000000000
      8102        61  POPC      H8S           -26.5363871707       -2.4211454028       -8.0287821210  MEMB      61              0.0000000000
      8103        61  POPC      C29           -26.7836412854       -0.4238635456       -8.7371292609  MEMB      61              0.0000000000
      8104        61  POPC      H91           -27.4138338126       -0.5945197021       -9.6224165250  MEMB      61              0.0000000000
      8105        61  POPC      C210          -26.8264903771        0.8502141869       -8.2455103287  MEMB      61              0.0000000000
      8106        61  POPC      H101          -27.4560340864        1.6541769001       -8.6545556573  MEMB      61              0.0000000000
      8107        61  POPC      C211          -25.9645496456        1.2682110002       -7.0846700053  MEMB      61              0.0000000000
      8108        61  POPC      H11R          -25.1940526139        0.5158538018       -6.8115138113  MEMB      61              0.0000000000
      8109        61  POPC      H11S          -26.5518739808        1.2743030675       -6.1416254515  MEMB      61              0.0000000000
      8110        61  POPC      C212          -25.2342805693        2.5935962787       -7.2414755667  MEMB      61              0.0000000000
      8111        61  POPC      H12R          -25.9589612442        3.3984708686       -6.9938150167  MEMB      61              0.0000000000
      8112        61  POPC      H12S          -24.9952283668        2.7132902213       -8.3198306330  MEMB      61              0.0000000000
      8113        61  POPC      C213          -24.0183088569        2.7852579097       -6.2324013443  MEMB      61              0.0000000000
      8114        61  POPC      H13R          -23.4046895600        3.6334472968       -6.6043789321  MEMB      61              0.0000000000
      8115        61  POPC      H13S          -23.3214160541        1.9201925115       -6.2144199315  MEMB      61              0.0000000000
      8116        61  POPC      C214          -24.3182921870        3.0803253415       -4.7633011338  MEMB      61              0.0000000000
      8117        61  POPC      H14R          -24.5675731998        2.1605834285       -4.1921142179  MEMB      61              0.0000000000
      8118        61  POPC      H14S          -25.2413037007        3.6920292037       -4.6728063996  MEMB      61              0.0000000000
      8119        61  POPC      C215          -23.1517446235        3.7336068888       -4.0689129991  MEMB      61              0.0000000000
      8120        61  POPC      H15R          -22.8778776114        4.6755797956       -4.5904548229  MEMB      61              0.0000000000
      8121        61  POPC      H15S          -22.2743216475        3.0525322532       -4.0931457823  MEMB      61              0.0000000000
      8122        61  POPC      C216          -23.4380619613        3.9496345748       -2.5643793487  MEMB      61              0.0000000000
      8123        61  POPC      H16R          -23.6829116151        2.9632284065       -2.1156328119  MEMB      61              0.0000000000
      8124        61  POPC      H16S          -24.3416518237        4.5924884288       -2.4966657548  MEMB      61              0.0000000000
      8125        61  POPC      C217          -22.3444904903        4.6717957251       -1.8009389740  MEMB      61              0.0000000000
      8126        61  POPC      H17R          -21.7858171576        5.3616047763       -2.4690467447  MEMB      61              0.0000000000
      8127        61  POPC      H17S          -21.5819897352        3.9324342774       -1.4749664913  MEMB      61              0.0000000000
      8128        61  POPC      C218          -22.8220458439        5.4509300914       -0.5682201078  MEMB      61              0.0000000000
      8129        61  POPC      H18R          -21.9045676219        5.8042829965       -0.0508273192  MEMB      61              0.0000000000
      8130        61  POPC      H18S          -23.3438594063        4.7810901869        0.1482618359  MEMB      61              0.0000000000
      8131        61  POPC      H18T          -23.5375177442        6.2670586605       -0.8056147300  MEMB      61              0.0000000000
      8132        61  POPC      C33           -21.3024555855        1.6149739176      -12.3623838633  MEMB      61              0.0000000000
      8133        61  POPC      H3X           -20.3269639820        1.1899428559      -12.0428746761  MEMB      61              0.0000000000
      8134        61  POPC      H3Y           -21.9948509608        0.7559853045      -12.4929523956  MEMB      61              0.0000000000
      8135        61  POPC      C34           -21.7864566705        2.4490529358      -11.1072084365  MEMB      61              0.0000000000
      8136        61  POPC      H4X           -22.7250156913        3.0103465507      -11.3031103673  MEMB      61              0.0000000000
      8137        61  POPC      H4Y           -21.0701681338        3.2251644215      -10.7623858782  MEMB      61              0.0000000000
      8138        61  POPC      C35           -22.0800253629        1.5015943359       -9.9643790854  MEMB      61              0.0000000000
      8139        61  POPC      H5X           -23.0290513233        0.9476922291      -10.1282787998  MEMB      61              0.0000000000
      8140        61  POPC      H5Y           -22.2710658442        2.1567177144       -9.0876591246  MEMB      61              0.0000000000
      8141        61  POPC      C36           -20.8755345305        0.6725472901       -9.5009030189  MEMB      61              0.0000000000
      8142        61  POPC      H6X           -20.0375507740        1.3612016711       -9.2603637963  MEMB      61              0.0000000000
      8143        61  POPC      H6Y           -20.7628956755       -0.1885381323      -10.1938427015  MEMB      61              0.0000000000
      8144        61  POPC      C37           -21.2191592445        0.0000520087       -8.1943294027  MEMB      61              0.0000000000
      8145        61  POPC      H7X           -21.8295576911       -0.9132921701       -8.3602724613  MEMB      61              0.0000000000
      8146        61  POPC      H7Y           -21.9120193438        0.6733094295       -7.6457035530  MEMB      61              0.0000000000
      8147        61  POPC      C38           -20.0259107888       -0.4104843970       -7.3376419972  MEMB      61              0.0000000000
      8148        61  POPC      H8X           -19.3060071838        0.4045022220       -7.5653623441  MEMB      61              0.0000000000
      8149        61  POPC      H8Y           -19.7241868135       -1.3899443633       -7.7665266104  MEMB      61              0.0000000000
      8150        61  POPC      C39           -20.3664040986       -0.6062185117       -5.8757463242  MEMB      61              0.0000000000
      8151        61  POPC      H9X           -19.5653371535       -1.2907620483       -5.5235917714  MEMB      61              0.0000000000
      8152        61  POPC      H9Y           -21.2402366410       -1.2716854989       -5.7087393347  MEMB      61              0.0000000000
      8153        61  POPC      C310          -20.4082022466        0.6280872962       -4.9629370433  MEMB      61              0.0000000000
      8154        61  POPC      H10X          -21.1308561746        1.1951383087       -5.5878735017  MEMB      61              0.0000000000
      8155        61  POPC      H10Y          -19.4712071652        1.2229737120       -4.9132237931  MEMB      61              0.0000000000
      8156        61  POPC      C311          -20.9249790125        0.3704859787       -3.4949638502  MEMB      61              0.0000000000
      8157        61  POPC      H11X          -20.7195547244        1.2928119593       -2.9106388817  MEMB      61              0.0000000000
      8158        61  POPC      H11Y          -20.1446726076       -0.3604897533       -3.1931081488  MEMB      61              0.0000000000
      8159        61  POPC      C312          -22.3600052742       -0.0396961054       -3.2675997437  MEMB      61              0.0000000000
      8160        61  POPC      H12X          -22.6800922149       -0.8862496336       -3.9119697728  MEMB      61              0.0000000000
      8161        61  POPC      H12Y          -22.9666444503        0.8392526278       -3.5738005644  MEMB      61              0.0000000000
      8162        61  POPC      C313          -22.6911927337       -0.2766161725       -1.8004061560  MEMB      61              0.0000000000
      8163        61  POPC      H13X          -22.2414844765        0.5238260662       -1.1748065276  MEMB      61              0.0000000000
      8164        61  POPC      H13Y          -22.2981043000       -1.2324938247       -1.3928539749  MEMB      61              0.0000000000
      8165        61  POPC      C314          -24.1509433876       -0.1618793389       -1.4350530401  MEMB      61              0.0000000000
      8166        61  POPC      H14X          -24.7483972924       -0.8665047979       -2.0522020150  MEMB      61              0.0000000000
      8167        61  POPC      H14Y          -24.5965591658        0.7452067033       -1.8965097072  MEMB      61              0.0000000000
      8168        61  POPC      C315          -24.4331412883       -0.2749138801        0.0463336137  MEMB      61              0.0000000000
      8169        61  POPC      H15X          -25.4559596965        0.1111868781        0.2440443959  MEMB      61              0.0000000000
      8170        61  POPC      H15Y          -23.7367789723        0.3577164109        0.6372480984  MEMB      61              0.0000000000
      8171        61  POPC      C316          -24.3410118478       -1.7168832792        0.6315508836  MEMB      61              0.0000000000
      8172        61  POPC      H16X          -23.3282444729       -2.1151969650        0.4080120698  MEMB      61              0.0000000000
      8173        61  POPC      H16Y          -25.0058620646       -2.3035077441       -0.0379023038  MEMB      61              0.0000000000
      8174        61  POPC      H16Z          -24.4615190821       -1.7031881478        1.7359104568  MEMB      61              0.0000000000
      8175        62  POPC      N             -17.8774855201        9.9026185716      -18.5267364442  MEMB      62              0.0000000000
      8176        62  POPC      C12           -19.0694641930        8.9912648943      -18.4887884553  MEMB      62              0.0000000000
      8177        62  POPC      H12A          -18.9927438934        8.4583348706      -17.5525729356  MEMB      62              0.0000000000
      8178        62  POPC      H12B          -19.0753500309        8.2836473793      -19.3046576781  MEMB      62              0.0000000000
      8179        62  POPC      C13           -17.9249773409       10.6660733004      -19.8041664613  MEMB      62              0.0000000000
      8180        62  POPC      H13A          -17.7853212419        9.8985876150      -20.5510680205  MEMB      62              0.0000000000
      8181        62  POPC      H13B          -18.8900865209       11.1401948322      -19.9050281225  MEMB      62              0.0000000000
      8182        62  POPC      H13C          -17.1832293758       11.4497769472      -19.7592375365  MEMB      62              0.0000000000
      8183        62  POPC      C14           -17.6633774145       10.7902585321      -17.3619844028  MEMB      62              0.0000000000
      8184        62  POPC      H14A          -18.6076177548       11.2577130688      -17.1247157823  MEMB      62              0.0000000000
      8185        62  POPC      H14B          -17.3354327920       10.2514602268      -16.4853152446  MEMB      62              0.0000000000
      8186        62  POPC      H14C          -16.8494563003       11.4475143778      -17.6302139627  MEMB      62              0.0000000000
      8187        62  POPC      C15           -16.6520632393        9.0469738308      -18.6446285927  MEMB      62              0.0000000000
      8188        62  POPC      H15A          -16.8445769092        8.1931790582      -19.2773789624  MEMB      62              0.0000000000
      8189        62  POPC      H15B          -16.2285368959        8.7345501171      -17.7015395165  MEMB      62              0.0000000000
      8190        62  POPC      H15C          -15.8840193651        9.6545218357      -19.1000337256  MEMB      62              0.0000000000
      8191        62  POPC      C11           -20.4646397173        9.7615507256      -18.4159443645  MEMB      62              0.0000000000
      8192        62  POPC      H11A          -20.5308860031       10.3054449496      -17.4494499789  MEMB      62              0.0000000000
      8193        62  POPC      H11B          -21.3476828824        9.0900199509      -18.4759638245  MEMB      62              0.0000000000
      8194        62  POPC      P             -21.1839227620       12.0595122083      -19.6000942921  MEMB      62              0.0000000000
      8195        62  POPC      O13           -22.6634408979       11.7967327419      -19.3066135703  MEMB      62              0.0000000000
      8196        62  POPC      O14           -20.7703796994       12.6650966893      -20.9061898553  MEMB      62              0.0000000000
      8197        62  POPC      O12           -20.5798270501       10.6020746394      -19.6161772981  MEMB      62              0.0000000000
      8198        62  POPC      O11           -20.5549169685       12.8230300673      -18.3286762522  MEMB      62              0.0000000000
      8199        62  POPC      C1            -20.4990035793       14.1877251173      -18.1274475166  MEMB      62              0.0000000000
      8200        62  POPC      HA            -21.3477777505       14.7010545844      -18.6278437199  MEMB      62              0.0000000000
      8201        62  POPC      HB            -19.5983524077       14.6364953665      -18.5983550164  MEMB      62              0.0000000000
      8202        62  POPC      C2            -20.7844761078       14.5194338966      -16.6344626764  MEMB      62              0.0000000000
      8203        62  POPC      HS            -20.7275993334       15.6289475653      -16.6263579347  MEMB      62              0.0000000000
      8204        62  POPC      O21           -19.7654443555       13.9388383483      -15.7885617577  MEMB      62              0.0000000000
      8205        62  POPC      C21           -19.7730061569       14.5271342675      -14.5353391538  MEMB      62              0.0000000000
      8206        62  POPC      O22           -20.4807187304       15.4025135894      -14.0507754035  MEMB      62              0.0000000000
      8207        62  POPC      C22           -18.5844737598       14.1492774389      -13.7059072782  MEMB      62              0.0000000000
      8208        62  POPC      H2R           -18.3260535136       15.0511509804      -13.1107907943  MEMB      62              0.0000000000
      8209        62  POPC      H2S           -17.7125938529       14.0289594547      -14.3838972350  MEMB      62              0.0000000000
      8210        62  POPC      C3            -22.1527041978       14.1067528216      -16.1322132768  MEMB      62              0.0000000000
      8211        62  POPC      HX            -22.7854228940       14.1779198018      -17.0426656644  MEMB      62              0.0000000000
      8212        62  POPC      HY            -22.5634278178       14.7889186987      -15.3574377230  MEMB      62              0.0000000000
      8213        62  POPC      O31           -22.1832740995       12.7310458936      -15.6164590561  MEMB      62              0.0000000000
      8214        62  POPC      C31           -23.2872109458       12.0674427072      -15.9732885655  MEMB      62              0.0000000000
      8215        62  POPC      O32           -24.2192569161       12.5344338327      -16.5676283018  MEMB      62              0.0000000000
      8216        62  POPC      C32           -23.1572777001       10.5676670913      -15.5347042648  MEMB      62              0.0000000000
      8217        62  POPC      H2X           -22.1527318735       10.1700474203      -15.7937554568  MEMB      62              0.0000000000
      8218        62  POPC      H2Y           -23.8990498278       10.0511162086      -16.1806688366  MEMB      62              0.0000000000
      8219        62  POPC      C23           -18.9524707201       12.8547680681      -12.8285511188  MEMB      62              0.0000000000
      8220        62  POPC      H3R           -19.0528773056       12.0105526129      -13.5437714641  MEMB      62              0.0000000000
      8221        62  POPC      H3S           -19.9636441191       12.8943401722      -12.3699845013  MEMB      62              0.0000000000
      8222        62  POPC      C24           -17.8341217997       12.5075320671      -11.8456078146  MEMB      62              0.0000000000
      8223        62  POPC      H4R           -16.8844138370       12.7065078225      -12.3867035817  MEMB      62              0.0000000000
      8224        62  POPC      H4S           -17.8801483675       11.4365011634      -11.5538969372  MEMB      62              0.0000000000
      8225        62  POPC      C25           -17.8967576126       13.3012235666      -10.5049927078  MEMB      62              0.0000000000
      8226        62  POPC      H5R           -17.7576779716       14.3970720467      -10.6237099555  MEMB      62              0.0000000000
      8227        62  POPC      H5S           -16.9967400707       13.0240356433       -9.9155388949  MEMB      62              0.0000000000
      8228        62  POPC      C26           -19.1202286247       13.0843031132       -9.5977114519  MEMB      62              0.0000000000
      8229        62  POPC      H6R           -19.4312902916       12.0335650592       -9.7807727236  MEMB      62              0.0000000000
      8230        62  POPC      H6S           -19.9083336164       13.7124525323      -10.0653010789  MEMB      62              0.0000000000
      8231        62  POPC      C27           -18.7850499497       13.4248867808       -8.1648962521  MEMB      62              0.0000000000
      8232        62  POPC      H7R           -17.8194028209       12.8991820623       -8.0052684258  MEMB      62              0.0000000000
      8233        62  POPC      H7S           -19.5217872265       12.9439617660       -7.4864794044  MEMB      62              0.0000000000
      8234        62  POPC      C28           -18.6677084800       14.9105440929       -7.8523226956  MEMB      62              0.0000000000
      8235        62  POPC      H8R           -18.1635306833       15.3136199464       -8.7565652803  MEMB      62              0.0000000000
      8236        62  POPC      H8S           -17.9871293955       14.9026913400       -6.9742160224  MEMB      62              0.0000000000
      8237        62  POPC      C29           -20.0590695931       15.5163082897       -7.5242840792  MEMB      62              0.0000000000
      8238        62  POPC      H91           -20.5158620492       15.9271647753       -8.4367193080  MEMB      62              0.0000000000
      8239        62  POPC      C210          -20.7498482099       15.4207528815       -6.3693634912  MEMB      62              0.0000000000
      8240        62  POPC      H101          -21.6903670078       15.9904678361       -6.3402264956  MEMB      62              0.0000000000
      8241        62  POPC      C211          -20.2546862123       14.6613971747       -5.1166032959  MEMB      62              0.0000000000
      8242        62  POPC      H11R          -19.7426327900       15.4064271886       -4.4708070196  MEMB      62              0.0000000000
      8243        62  POPC      H11S          -19.5077205717       13.8480052635       -5.2380804368  MEMB      62              0.0000000000
      8244        62  POPC      C212          -21.4090376067       14.1028895369       -4.2504491887  MEMB      62              0.0000000000
      8245        62  POPC      H12R          -22.1318613124       14.9456273050       -4.2099548971  MEMB      62              0.0000000000
      8246        62  POPC      H12S          -20.9560688750       13.9699708666       -3.2447294761  MEMB      62              0.0000000000
      8247        62  POPC      C213          -21.9079278683       12.7715883364       -4.6315781530  MEMB      62              0.0000000000
      8248        62  POPC      H13R          -21.0338696475       12.0983314361       -4.7622253458  MEMB      62              0.0000000000
      8249        62  POPC      H13S          -22.3936398707       12.7442284553       -5.6304053102  MEMB      62              0.0000000000
      8250        62  POPC      C214          -22.8673458664       12.1715627491       -3.5702190778  MEMB      62              0.0000000000
      8251        62  POPC      H14R          -23.8302089611       12.6971890067       -3.7460963860  MEMB      62              0.0000000000
      8252        62  POPC      H14S          -22.5175814102       12.4816282966       -2.5623266337  MEMB      62              0.0000000000
      8253        62  POPC      C215          -23.0307494666       10.6502795567       -3.8859351812  MEMB      62              0.0000000000
      8254        62  POPC      H15R          -22.8674203871       10.6109865799       -4.9841607111  MEMB      62              0.0000000000
      8255        62  POPC      H15S          -24.0346711706       10.2931077726       -3.5714661832  MEMB      62              0.0000000000
      8256        62  POPC      C216          -21.9325084132        9.8267365516       -3.1375437089  MEMB      62              0.0000000000
      8257        62  POPC      H16R          -22.2582191142        9.8055613615       -2.0755709357  MEMB      62              0.0000000000
      8258        62  POPC      H16S          -20.9333067598       10.3071454425       -3.2091274789  MEMB      62              0.0000000000
      8259        62  POPC      C217          -21.8401792579        8.3639682858       -3.5081869729  MEMB      62              0.0000000000
      8260        62  POPC      H17R          -21.4454473805        8.1952494530       -4.5329028339  MEMB      62              0.0000000000
      8261        62  POPC      H17S          -22.8122409747        7.8784090689       -3.2765636560  MEMB      62              0.0000000000
      8262        62  POPC      C218          -20.8229219513        7.7117917540       -2.5334700559  MEMB      62              0.0000000000
      8263        62  POPC      H18R          -21.2765227813        7.6964601832       -1.5194045059  MEMB      62              0.0000000000
      8264        62  POPC      H18S          -19.8265650157        8.1902645920       -2.6459760902  MEMB      62              0.0000000000
      8265        62  POPC      H18T          -20.6104677426        6.6716116814       -2.8608998432  MEMB      62              0.0000000000
      8266        62  POPC      C33           -23.3585548731       10.4025400464      -13.9910545754  MEMB      62              0.0000000000
      8267        62  POPC      H3X           -22.3927948717       10.7248970025      -13.5464039733  MEMB      62              0.0000000000
      8268        62  POPC      H3Y           -23.4915892481        9.3226402635      -13.7664670637  MEMB      62              0.0000000000
      8269        62  POPC      C34           -24.4561057474       11.2336290330      -13.3645809578  MEMB      62              0.0000000000
      8270        62  POPC      H4X           -25.3871030393       11.2663347473      -13.9699694922  MEMB      62              0.0000000000
      8271        62  POPC      H4Y           -24.0956512273       12.2844421992      -13.3781897261  MEMB      62              0.0000000000
      8272        62  POPC      C35           -24.8127594042       10.9870480717      -11.9333968157  MEMB      62              0.0000000000
      8273        62  POPC      H5X           -25.4389828352       10.0698791689      -11.9644766218  MEMB      62              0.0000000000
      8274        62  POPC      H5Y           -25.3707685908       11.8505416030      -11.5122966091  MEMB      62              0.0000000000
      8275        62  POPC      C36           -23.6613106028       10.6920744313      -11.0068875206  MEMB      62              0.0000000000
      8276        62  POPC      H6X           -23.1100160127       11.6465054528      -10.8673995349  MEMB      62              0.0000000000
      8277        62  POPC      H6Y           -23.0359271386        9.8927555047      -11.4588886335  MEMB      62              0.0000000000
      8278        62  POPC      C37           -24.1646771432       10.2552682952       -9.6127580948  MEMB      62              0.0000000000
      8279        62  POPC      H7X           -24.3591905808        9.1614533414       -9.6201367303  MEMB      62              0.0000000000
      8280        62  POPC      H7Y           -25.1572084970       10.7258743426       -9.4462268632  MEMB      62              0.0000000000
      8281        62  POPC      C38           -23.2904358959       10.7302199282       -8.4658899131  MEMB      62              0.0000000000
      8282        62  POPC      H8X           -23.8872140798       10.4159521319       -7.5830466151  MEMB      62              0.0000000000
      8283        62  POPC      H8Y           -23.1509903005       11.8320844557       -8.4381312660  MEMB      62              0.0000000000
      8284        62  POPC      C39           -21.8866039576       10.1491622658       -8.5698316707  MEMB      62              0.0000000000
      8285        62  POPC      H9X           -21.2507998408       10.6757183185       -9.3133449930  MEMB      62              0.0000000000
      8286        62  POPC      H9Y           -21.8876421470        9.0681776668       -8.8263304941  MEMB      62              0.0000000000
      8287        62  POPC      C310          -21.0003108299       10.1959399144       -7.2698330403  MEMB      62              0.0000000000
      8288        62  POPC      H10X          -21.3910218467        9.7879302887       -6.3131752658  MEMB      62              0.0000000000
      8289        62  POPC      H10Y          -20.7877668827       11.2453741571       -6.9734645772  MEMB      62              0.0000000000
      8290        62  POPC      C311          -19.6142812103        9.4716455574       -7.3402339045  MEMB      62              0.0000000000
      8291        62  POPC      H11X          -19.0951655566        9.9536075882       -8.1961267788  MEMB      62              0.0000000000
      8292        62  POPC      H11Y          -19.8798250451        8.4736774601       -7.7499496471  MEMB      62              0.0000000000
      8293        62  POPC      C312          -18.7306667620        9.2827380781       -6.0765216132  MEMB      62              0.0000000000
      8294        62  POPC      H12X          -17.9308327996        8.5187653052       -6.1810776454  MEMB      62              0.0000000000
      8295        62  POPC      H12Y          -19.4182639198        8.7532422682       -5.3828609193  MEMB      62              0.0000000000
      8296        62  POPC      C313          -18.2921822442       10.5255284674       -5.2990646310  MEMB      62              0.0000000000
      8297        62  POPC      H13X          -19.1780420574       11.0295056006       -4.8568199081  MEMB      62              0.0000000000
      8298        62  POPC      H13Y          -17.6634535862       11.2446105801       -5.8664646321  MEMB      62              0.0000000000
      8299        62  POPC      C314          -17.4433887977       10.1423653715       -4.0548490249  MEMB      62              0.0000000000
      8300        62  POPC      H14X          -16.6975206744        9.3648481797       -4.3258994036  MEMB      62              0.0000000000
      8301        62  POPC      H14Y          -18.1454674866        9.7413680246       -3.2928723179  MEMB      62              0.0000000000
      8302        62  POPC      C315          -16.6896294884       11.3796277880       -3.4910302695  MEMB      62              0.0000000000
      8303        62  POPC      H15X          -17.3220147616       12.2913267864       -3.4343320953  MEMB      62              0.0000000000
      8304        62  POPC      H15Y          -15.8509535137       11.5571783812       -4.1977259923  MEMB      62              0.0000000000
      8305        62  POPC      C316          -15.9515203202       11.2299058787       -2.1474539089  MEMB      62              0.0000000000
      8306        62  POPC      H16X          -15.1989731490       12.0035574778       -1.8839079174  MEMB      62              0.0000000000
      8307        62  POPC      H16Y          -15.3417661817       10.3098422537       -2.2739564067  MEMB      62              0.0000000000
      8308        62  POPC      H16Z          -16.7075158620       11.2039075055       -1.3337470540  MEMB      62              0.0000000000
      8309        63  POPC      N              -5.1056272927       19.7009129836      -20.1400234064  MEMB      63              0.0000000000
      8310        63  POPC      C12            -5.6068862766       19.7608002477      -18.6767798317  MEMB      63              0.0000000000
      8311        63  POPC      H12A           -6.0963572658       20.7199436190      -18.5939414712  MEMB      63              0.0000000000
      8312        63  POPC      H12B           -4.7139029691       20.0115657992      -18.1235191805  MEMB      63              0.0000000000
      8313        63  POPC      C13            -6.3182000923       19.3590376964      -21.0992322860  MEMB      63              0.0000000000
      8314        63  POPC      H13A           -6.0540643996       19.2109556526      -22.1359116369  MEMB      63              0.0000000000
      8315        63  POPC      H13B           -6.5079719702       18.3173620384      -20.8863979846  MEMB      63              0.0000000000
      8316        63  POPC      H13C           -7.1886627923       19.9671434179      -20.9019960293  MEMB      63              0.0000000000
      8317        63  POPC      C14            -4.5186033877       20.9736261831      -20.5626276312  MEMB      63              0.0000000000
      8318        63  POPC      H14A           -5.1981475758       21.7227287236      -20.1838598757  MEMB      63              0.0000000000
      8319        63  POPC      H14B           -3.5235600757       21.1886582611      -20.2020031601  MEMB      63              0.0000000000
      8320        63  POPC      H14C           -4.5227654810       21.0065177066      -21.6421185782  MEMB      63              0.0000000000
      8321        63  POPC      C15            -4.1302884627       18.6463992927      -20.2396661389  MEMB      63              0.0000000000
      8322        63  POPC      H15A           -3.2332634269       18.9781805291      -19.7380019427  MEMB      63              0.0000000000
      8323        63  POPC      H15B           -3.9289851762       18.4392282359      -21.2803184615  MEMB      63              0.0000000000
      8324        63  POPC      H15C           -4.4895980180       17.7495252704      -19.7570546690  MEMB      63              0.0000000000
      8325        63  POPC      C11            -6.3476188823       18.6446963501      -17.9965109283  MEMB      63              0.0000000000
      8326        63  POPC      H11A           -6.2518398214       18.6608785733      -16.8897653899  MEMB      63              0.0000000000
      8327        63  POPC      H11B           -5.7860119448       17.6928568032      -18.1101770722  MEMB      63              0.0000000000
      8328        63  POPC      P              -8.8099182886       19.3329608022      -18.0899475954  MEMB      63              0.0000000000
      8329        63  POPC      O13           -10.0394876776       18.5057909658      -17.8226694252  MEMB      63              0.0000000000
      8330        63  POPC      O14            -8.9828491919       20.4454066704      -19.0800749759  MEMB      63              0.0000000000
      8331        63  POPC      O12            -7.6065000079       18.4166769129      -18.6060958047  MEMB      63              0.0000000000
      8332        63  POPC      O11            -8.2850016536       19.9046781806      -16.6863719758  MEMB      63              0.0000000000
      8333        63  POPC      C1             -9.1989526055       20.4194783867      -15.7100788262  MEMB      63              0.0000000000
      8334        63  POPC      HA            -10.2611417794       20.3461687588      -16.0274129336  MEMB      63              0.0000000000
      8335        63  POPC      HB             -8.8813717682       21.4774387358      -15.5909848512  MEMB      63              0.0000000000
      8336        63  POPC      C2             -9.0595047290       19.6337548511      -14.3892526299  MEMB      63              0.0000000000
      8337        63  POPC      HS             -9.7699522302       19.9000718833      -13.5776733778  MEMB      63              0.0000000000
      8338        63  POPC      O21            -7.6883343404       19.7584728848      -13.8964429467  MEMB      63              0.0000000000
      8339        63  POPC      C21            -7.5149784889       20.7920691215      -12.9469583051  MEMB      63              0.0000000000
      8340        63  POPC      O22            -8.3639580840       21.6074334375      -12.6554538306  MEMB      63              0.0000000000
      8341        63  POPC      C22            -6.0982785091       20.8918055357      -12.5179460642  MEMB      63              0.0000000000
      8342        63  POPC      H2R            -6.0502687351       21.1908574587      -11.4490288991  MEMB      63              0.0000000000
      8343        63  POPC      H2S            -5.5519531946       21.6398838277      -13.1313209726  MEMB      63              0.0000000000
      8344        63  POPC      C3             -9.2898060866       18.1822485755      -14.7382425410  MEMB      63              0.0000000000
      8345        63  POPC      HX             -8.5714147302       18.0578589123      -15.5765515340  MEMB      63              0.0000000000
      8346        63  POPC      HY            -10.2628777608       17.8267931535      -15.1396196040  MEMB      63              0.0000000000
      8347        63  POPC      O31            -8.9494751580       17.3635367703      -13.6016378919  MEMB      63              0.0000000000
      8348        63  POPC      C31            -8.6133758691       16.0738626471      -13.9412553576  MEMB      63              0.0000000000
      8349        63  POPC      O32            -8.6796746991       15.6639721903      -15.0877248070  MEMB      63              0.0000000000
      8350        63  POPC      C32            -7.9951432456       15.2797236802      -12.7293669218  MEMB      63              0.0000000000
      8351        63  POPC      H2X            -6.9539975779       15.0104785661      -13.0083725648  MEMB      63              0.0000000000
      8352        63  POPC      H2Y            -8.5360318381       14.3287830554      -12.5357889413  MEMB      63              0.0000000000
      8353        63  POPC      C23            -5.3628151047       19.5186022227      -12.7650089688  MEMB      63              0.0000000000
      8354        63  POPC      H3R            -5.3489039349       19.5353328387      -13.8757958598  MEMB      63              0.0000000000
      8355        63  POPC      H3S            -6.0468056634       18.7122179391      -12.4240950842  MEMB      63              0.0000000000
      8356        63  POPC      C24            -3.9837617252       19.4368887943      -12.1604724875  MEMB      63              0.0000000000
      8357        63  POPC      H4R            -4.2757447350       20.0022111634      -11.2497155059  MEMB      63              0.0000000000
      8358        63  POPC      H4S            -3.1512268976       20.0432411918      -12.5770572189  MEMB      63              0.0000000000
      8359        63  POPC      C25            -3.5382817371       18.0206729850      -11.8663361872  MEMB      63              0.0000000000
      8360        63  POPC      H5R            -3.5191239063       17.4146381062      -12.7972905151  MEMB      63              0.0000000000
      8361        63  POPC      H5S            -4.2674560127       17.4942558348      -11.2140245212  MEMB      63              0.0000000000
      8362        63  POPC      C26            -2.2378244283       17.9802147788      -11.1180056226  MEMB      63              0.0000000000
      8363        63  POPC      H6R            -2.1927545153       18.9793070321      -10.6341616578  MEMB      63              0.0000000000
      8364        63  POPC      H6S            -1.3993027678       17.9670861888      -11.8467238001  MEMB      63              0.0000000000
      8365        63  POPC      C27            -2.0933665705       16.8268977886      -10.1267019857  MEMB      63              0.0000000000
      8366        63  POPC      H7R            -1.0269265552       16.5220084337      -10.0629105318  MEMB      63              0.0000000000
      8367        63  POPC      H7S            -2.6753022065       15.9434084525      -10.4659933674  MEMB      63              0.0000000000
      8368        63  POPC      C28            -2.4930556883       17.1396277742       -8.6536237114  MEMB      63              0.0000000000
      8369        63  POPC      H8R            -3.2650340737       17.9220034881       -8.4915784689  MEMB      63              0.0000000000
      8370        63  POPC      H8S            -1.6572683155       17.5239697626       -8.0306774614  MEMB      63              0.0000000000
      8371        63  POPC      C29            -3.0085319457       16.0296815659       -7.7629792730  MEMB      63              0.0000000000
      8372        63  POPC      H91            -3.1568170544       15.0909456025       -8.3168619444  MEMB      63              0.0000000000
      8373        63  POPC      C210           -3.5311680003       16.2033502956       -6.5148737873  MEMB      63              0.0000000000
      8374        63  POPC      H101           -3.8129820449       15.3025811756       -5.9498989081  MEMB      63              0.0000000000
      8375        63  POPC      C211           -3.7323678798       17.4645310524       -5.7532714925  MEMB      63              0.0000000000
      8376        63  POPC      H11R           -4.7543669706       17.7678481339       -6.0660613783  MEMB      63              0.0000000000
      8377        63  POPC      H11S           -3.1007353376       18.2090183989       -6.2834594628  MEMB      63              0.0000000000
      8378        63  POPC      C212           -3.4241307315       17.4944394146       -4.2315546464  MEMB      63              0.0000000000
      8379        63  POPC      H12R           -3.6164284138       18.5100858122       -3.8243628996  MEMB      63              0.0000000000
      8380        63  POPC      H12S           -2.3642881419       17.3334167548       -3.9397904524  MEMB      63              0.0000000000
      8381        63  POPC      C213           -4.0337651949       16.3965657598       -3.4005446088  MEMB      63              0.0000000000
      8382        63  POPC      H13R           -3.6037503740       16.4473006494       -2.3773947037  MEMB      63              0.0000000000
      8383        63  POPC      H13S           -3.7810372499       15.3866851224       -3.7886038533  MEMB      63              0.0000000000
      8384        63  POPC      C214           -5.5732447512       16.5698873737       -3.4696631178  MEMB      63              0.0000000000
      8385        63  POPC      H14R           -5.7665804464       16.6068182227       -4.5630876354  MEMB      63              0.0000000000
      8386        63  POPC      H14S           -5.7107656002       17.6081146495       -3.0988620968  MEMB      63              0.0000000000
      8387        63  POPC      C215           -6.3777945947       15.5313504077       -2.8151397506  MEMB      63              0.0000000000
      8388        63  POPC      H15R           -5.6407869646       15.1294967961       -2.0873666140  MEMB      63              0.0000000000
      8389        63  POPC      H15S           -6.6188660916       14.7095286533       -3.5228229489  MEMB      63              0.0000000000
      8390        63  POPC      C216           -7.5892028453       16.0255005192       -2.0011141046  MEMB      63              0.0000000000
      8391        63  POPC      H16R           -8.3317933214       16.4370213602       -2.7177262977  MEMB      63              0.0000000000
      8392        63  POPC      H16S           -7.2558452834       16.7413666297       -1.2196233900  MEMB      63              0.0000000000
      8393        63  POPC      C217           -8.2869774366       14.8209180658       -1.3515820163  MEMB      63              0.0000000000
      8394        63  POPC      H17R           -9.0870932660       15.2768696179       -0.7300960865  MEMB      63              0.0000000000
      8395        63  POPC      H17S           -7.6291948790       14.2267987721       -0.6817559439  MEMB      63              0.0000000000
      8396        63  POPC      C218           -9.1183176372       13.9049583285       -2.3183987005  MEMB      63              0.0000000000
      8397        63  POPC      H18R           -9.5552026571       14.5180970534       -3.1354151666  MEMB      63              0.0000000000
      8398        63  POPC      H18S           -9.8239655091       13.2854128707       -1.7246442697  MEMB      63              0.0000000000
      8399        63  POPC      H18T           -8.5020405579       13.1764928301       -2.8874881104  MEMB      63              0.0000000000
      8400        63  POPC      C33            -8.0400112823       16.1432502339      -11.3822307681  MEMB      63              0.0000000000
      8401        63  POPC      H3X            -9.0890010482       16.1049531263      -11.0182592851  MEMB      63              0.0000000000
      8402        63  POPC      H3Y            -7.5689301992       17.1330205687      -11.5632227620  MEMB      63              0.0000000000
      8403        63  POPC      C34            -7.2671568604       15.4869684784      -10.1359064555  MEMB      63              0.0000000000
      8404        63  POPC      H4X            -6.1944748165       15.7570703972      -10.2394390966  MEMB      63              0.0000000000
      8405        63  POPC      H4Y            -7.3756893465       14.3819236738      -10.1735631372  MEMB      63              0.0000000000
      8406        63  POPC      C35            -7.7036378496       16.0362689807       -8.8099414241  MEMB      63              0.0000000000
      8407        63  POPC      H5X            -7.0186228391       15.6073090963       -8.0476617511  MEMB      63              0.0000000000
      8408        63  POPC      H5Y            -8.7493528922       15.6802207156       -8.6914882927  MEMB      63              0.0000000000
      8409        63  POPC      C36            -7.7370889888       17.6119924144       -8.6912139777  MEMB      63              0.0000000000
      8410        63  POPC      H6X            -8.2338949147       17.7841393663       -7.7125050494  MEMB      63              0.0000000000
      8411        63  POPC      H6Y            -8.4801863184       17.9413424151       -9.4486139104  MEMB      63              0.0000000000
      8412        63  POPC      C37            -6.4467681782       18.4031308199       -8.8962140547  MEMB      63              0.0000000000
      8413        63  POPC      H7X            -6.1979831041       18.4753712467       -9.9765880139  MEMB      63              0.0000000000
      8414        63  POPC      H7Y            -5.5793504251       18.0100791240       -8.3240099307  MEMB      63              0.0000000000
      8415        63  POPC      C38            -6.6767727232       19.8208191225       -8.3478893932  MEMB      63              0.0000000000
      8416        63  POPC      H8X            -7.3486865358       19.5449955191       -7.5071907489  MEMB      63              0.0000000000
      8417        63  POPC      H8Y            -7.2443459540       20.3566229365       -9.1385198688  MEMB      63              0.0000000000
      8418        63  POPC      C39            -5.3372862553       20.5240259391       -7.8270781410  MEMB      63              0.0000000000
      8419        63  POPC      H9X            -4.6708818152       20.4655582931       -8.7141005918  MEMB      63              0.0000000000
      8420        63  POPC      H9Y            -4.7864592981       19.9527299801       -7.0495624286  MEMB      63              0.0000000000
      8421        63  POPC      C310           -5.4649729324       22.0301212479       -7.4752106441  MEMB      63              0.0000000000
      8422        63  POPC      H10X           -5.6242013390       22.6866549236       -8.3572140475  MEMB      63              0.0000000000
      8423        63  POPC      H10Y           -4.4923613175       22.2330589491       -6.9780539923  MEMB      63              0.0000000000
      8424        63  POPC      C311           -6.7516815760       22.3536974657       -6.5937640328  MEMB      63              0.0000000000
      8425        63  POPC      H11X           -7.5980850674       22.2040617492       -7.2977041563  MEMB      63              0.0000000000
      8426        63  POPC      H11Y           -6.6857679761       23.4618088805       -6.5483144506  MEMB      63              0.0000000000
      8427        63  POPC      C312           -6.9458292537       21.7500114675       -5.2208804388  MEMB      63              0.0000000000
      8428        63  POPC      H12X           -6.1377017176       22.2542730625       -4.6490667049  MEMB      63              0.0000000000
      8429        63  POPC      H12Y           -6.7798242390       20.6520123098       -5.1868084228  MEMB      63              0.0000000000
      8430        63  POPC      C313           -8.1853401279       22.0352103981       -4.3449441482  MEMB      63              0.0000000000
      8431        63  POPC      H13X           -9.1940183694       21.6653122026       -4.6279003603  MEMB      63              0.0000000000
      8432        63  POPC      H13Y           -8.3062190633       23.1391826632       -4.3758469022  MEMB      63              0.0000000000
      8433        63  POPC      C314           -8.1195818896       21.8132030913       -2.8782522601  MEMB      63              0.0000000000
      8434        63  POPC      H14X           -9.0976945039       22.0272206812       -2.3967820765  MEMB      63              0.0000000000
      8435        63  POPC      H14Y           -7.4024072099       22.5199710538       -2.4087199567  MEMB      63              0.0000000000
      8436        63  POPC      C315           -7.7542875539       20.3435786240       -2.4746168849  MEMB      63              0.0000000000
      8437        63  POPC      H15X           -6.6609953324       20.1543998490       -2.5315750959  MEMB      63              0.0000000000
      8438        63  POPC      H15Y           -8.2852350204       19.7248343987       -3.2293173022  MEMB      63              0.0000000000
      8439        63  POPC      C316           -8.2203309898       20.0526827834       -1.0700324681  MEMB      63              0.0000000000
      8440        63  POPC      H16X           -9.2816546159       20.3748720429       -1.0059461420  MEMB      63              0.0000000000
      8441        63  POPC      H16Y           -7.6759472193       20.6490710536       -0.3069547372  MEMB      63              0.0000000000
      8442        63  POPC      H16Z           -8.1370402741       18.9647005302       -0.8610401921  MEMB      63              0.0000000000
      8443        64  POPC      N               2.5956537866       18.4158259929      -17.6227682339  MEMB      64              0.0000000000
      8444        64  POPC      C12             1.7445604459       19.7289351600      -17.5410271454  MEMB      64              0.0000000000
      8445        64  POPC      H12A            2.4498200173       20.5363745561      -17.4104493463  MEMB      64              0.0000000000
      8446        64  POPC      H12B            1.1712847066       19.6922819894      -16.6264717244  MEMB      64              0.0000000000
      8447        64  POPC      C13             3.3406758300       18.3399101289      -16.3615332394  MEMB      64              0.0000000000
      8448        64  POPC      H13A            4.0719899725       17.5454356873      -16.3417802134  MEMB      64              0.0000000000
      8449        64  POPC      H13B            3.8294060660       19.2676175379      -16.1028793777  MEMB      64              0.0000000000
      8450        64  POPC      H13C            2.6984839493       18.1217967197      -15.5210476534  MEMB      64              0.0000000000
      8451        64  POPC      C14             1.5888622075       17.2678057654      -17.9141009147  MEMB      64              0.0000000000
      8452        64  POPC      H14A            1.9266646988       16.2787444186      -17.6419845506  MEMB      64              0.0000000000
      8453        64  POPC      H14B            0.8868346167       17.4598339489      -17.1161770595  MEMB      64              0.0000000000
      8454        64  POPC      H14C            1.1770824629       17.3612024630      -18.9081403325  MEMB      64              0.0000000000
      8455        64  POPC      C15             3.5724371453       18.4929253529      -18.7224167950  MEMB      64              0.0000000000
      8456        64  POPC      H15A            4.1120267850       17.5612568602      -18.8074862241  MEMB      64              0.0000000000
      8457        64  POPC      H15B            4.2405204993       19.2571444245      -18.3535890380  MEMB      64              0.0000000000
      8458        64  POPC      H15C            3.1021306064       18.8576686993      -19.6236237368  MEMB      64              0.0000000000
      8459        64  POPC      C11             0.7116819652       20.1007952585      -18.5828211761  MEMB      64              0.0000000000
      8460        64  POPC      H11A            0.1741427865       21.0576663461      -18.4102804223  MEMB      64              0.0000000000
      8461        64  POPC      H11B           -0.0913392475       19.3342138765      -18.6256106097  MEMB      64              0.0000000000
      8462        64  POPC      P               1.7349995661       21.3234307780      -20.5384836465  MEMB      64              0.0000000000
      8463        64  POPC      O13             0.5348411638       22.1433064899      -20.8634199616  MEMB      64              0.0000000000
      8464        64  POPC      O14             2.7289047041       21.1753629898      -21.6749940799  MEMB      64              0.0000000000
      8465        64  POPC      O12             1.2037381720       19.9984332936      -19.9189018053  MEMB      64              0.0000000000
      8466        64  POPC      O11             2.4252848234       22.0262013850      -19.2595330441  MEMB      64              0.0000000000
      8467        64  POPC      C1              3.2200488478       23.1876986567      -19.3909626317  MEMB      64              0.0000000000
      8468        64  POPC      HA              2.7488964640       23.8507375931      -20.1477425406  MEMB      64              0.0000000000
      8469        64  POPC      HB              4.2318886824       22.9187560761      -19.7626761466  MEMB      64              0.0000000000
      8470        64  POPC      C2              3.2990512112       24.0083629977      -18.0524708767  MEMB      64              0.0000000000
      8471        64  POPC      HS              3.7325733245       24.9784327367      -18.3770387959  MEMB      64              0.0000000000
      8472        64  POPC      O21             4.1404624241       23.2508146633      -17.1560115068  MEMB      64              0.0000000000
      8473        64  POPC      C21             4.5405497449       23.8764710664      -16.0445961471  MEMB      64              0.0000000000
      8474        64  POPC      O22             4.1317993906       24.8815590195      -15.5138039755  MEMB      64              0.0000000000
      8475        64  POPC      C22             5.7593335770       23.0989321685      -15.5228279615  MEMB      64              0.0000000000
      8476        64  POPC      H2R             6.4895685583       23.9356778782      -15.5533957355  MEMB      64              0.0000000000
      8477        64  POPC      H2S             6.2214279692       22.3776917707      -16.2303601768  MEMB      64              0.0000000000
      8478        64  POPC      C3              1.9401198928       24.3374444411      -17.3630826371  MEMB      64              0.0000000000
      8479        64  POPC      HX              1.2686384180       24.6916920997      -18.1742190700  MEMB      64              0.0000000000
      8480        64  POPC      HY              2.0342938757       25.1494805818      -16.6107202903  MEMB      64              0.0000000000
      8481        64  POPC      O31             1.3617497597       23.1658126104      -16.8368916203  MEMB      64              0.0000000000
      8482        64  POPC      C31             0.2284800362       23.2985865096      -16.0677657637  MEMB      64              0.0000000000
      8483        64  POPC      O32            -0.3540348325       24.3626199096      -15.8399186584  MEMB      64              0.0000000000
      8484        64  POPC      C32            -0.0765838379       22.0255722064      -15.3440934460  MEMB      64              0.0000000000
      8485        64  POPC      H2X             0.4854452516       21.1065924657      -15.6159770558  MEMB      64              0.0000000000
      8486        64  POPC      H2Y            -1.0887971499       21.6723047432      -15.6355508256  MEMB      64              0.0000000000
      8487        64  POPC      C23             5.6241536668       22.4323237262      -14.1444657361  MEMB      64              0.0000000000
      8488        64  POPC      H3R             4.6044714906       22.5079940864      -13.7099044240  MEMB      64              0.0000000000
      8489        64  POPC      H3S             6.4631582997       22.8285189977      -13.5333832186  MEMB      64              0.0000000000
      8490        64  POPC      C24             5.6896068780       20.8387696882      -14.2624268892  MEMB      64              0.0000000000
      8491        64  POPC      H4R             6.6821672815       20.5879501611      -14.6939750337  MEMB      64              0.0000000000
      8492        64  POPC      H4S             4.8878912889       20.5789438804      -14.9863492399  MEMB      64              0.0000000000
      8493        64  POPC      C25             5.5176793056       20.0825698364      -12.9049650480  MEMB      64              0.0000000000
      8494        64  POPC      H5R             5.4627437636       20.9491611805      -12.2119119095  MEMB      64              0.0000000000
      8495        64  POPC      H5S             6.4272325419       19.4504637857      -12.8185011227  MEMB      64              0.0000000000
      8496        64  POPC      C26             4.1902454682       19.3232210659      -12.8495293766  MEMB      64              0.0000000000
      8497        64  POPC      H6R             4.2016657154       18.5458192051      -13.6431521959  MEMB      64              0.0000000000
      8498        64  POPC      H6S             3.3870903957       20.0843351145      -12.9493700758  MEMB      64              0.0000000000
      8499        64  POPC      C27             3.8668167945       18.6168495341      -11.4383090736  MEMB      64              0.0000000000
      8500        64  POPC      H7R             3.5965257171       19.4389938327      -10.7416440353  MEMB      64              0.0000000000
      8501        64  POPC      H7S             4.6567226180       17.9395984667      -11.0488214882  MEMB      64              0.0000000000
      8502        64  POPC      C28             2.5788624889       17.6504806445      -11.5224790615  MEMB      64              0.0000000000
      8503        64  POPC      H8R             2.2929786791       17.5077359188      -10.4584228184  MEMB      64              0.0000000000
      8504        64  POPC      H8S             3.1226642855       16.7308155904      -11.8271380976  MEMB      64              0.0000000000
      8505        64  POPC      C29             1.3473521991       18.0096194934      -12.3517851579  MEMB      64              0.0000000000
      8506        64  POPC      H91             1.3912212427       17.9259817488      -13.4477231081  MEMB      64              0.0000000000
      8507        64  POPC      C210            0.1256914434       18.2196320162      -11.7835769353  MEMB      64              0.0000000000
      8508        64  POPC      H101           -0.7927819017       18.3096079438      -12.3821679420  MEMB      64              0.0000000000
      8509        64  POPC      C211           -0.2180425464       18.0796484125      -10.2778258792  MEMB      64              0.0000000000
      8510        64  POPC      H11R            0.3907752238       17.2159418785       -9.9347908490  MEMB      64              0.0000000000
      8511        64  POPC      H11S           -1.2996769277       17.8612402351      -10.1486527685  MEMB      64              0.0000000000
      8512        64  POPC      C212            0.0692687812       19.2868030697       -9.3357056560  MEMB      64              0.0000000000
      8513        64  POPC      H12R           -0.3231996648       20.2330755905       -9.7656558791  MEMB      64              0.0000000000
      8514        64  POPC      H12S            1.1690153604       19.4180786944       -9.4231418417  MEMB      64              0.0000000000
      8515        64  POPC      C213           -0.4099365088       19.1429810632       -7.9002596277  MEMB      64              0.0000000000
      8516        64  POPC      H13R           -1.5031663473       18.9482151041       -7.8651102684  MEMB      64              0.0000000000
      8517        64  POPC      H13S           -0.2010249431       20.0958008641       -7.3684600364  MEMB      64              0.0000000000
      8518        64  POPC      C214            0.3924566910       18.0754097786       -7.1764177399  MEMB      64              0.0000000000
      8519        64  POPC      H14R            1.4409163174       18.1337614233       -7.5392520008  MEMB      64              0.0000000000
      8520        64  POPC      H14S            0.1202232716       17.0334148412       -7.4492847368  MEMB      64              0.0000000000
      8521        64  POPC      C215            0.4156349483       18.1120693068       -5.6372775624  MEMB      64              0.0000000000
      8522        64  POPC      H15R            0.8235592835       17.1717063204       -5.2087495641  MEMB      64              0.0000000000
      8523        64  POPC      H15S           -0.6454223298       18.2655752889       -5.3458768631  MEMB      64              0.0000000000
      8524        64  POPC      C216            1.0364773293       19.3577816549       -5.0122902667  MEMB      64              0.0000000000
      8525        64  POPC      H16R            0.4424515799       20.2585421575       -5.2770258972  MEMB      64              0.0000000000
      8526        64  POPC      H16S            2.1182854858       19.4670634032       -5.2404778984  MEMB      64              0.0000000000
      8527        64  POPC      C217            0.9636866907       19.3658223927       -3.4250914407  MEMB      64              0.0000000000
      8528        64  POPC      H17R            1.4830995773       18.4608052323       -3.0436794221  MEMB      64              0.0000000000
      8529        64  POPC      H17S           -0.0823630256       19.2298313350       -3.0763690010  MEMB      64              0.0000000000
      8530        64  POPC      C218            1.5739751845       20.5188439443       -2.6111427299  MEMB      64              0.0000000000
      8531        64  POPC      H18R            2.6845265778       20.4999037394       -2.5858852369  MEMB      64              0.0000000000
      8532        64  POPC      H18S            1.2928521889       20.2030544111       -1.5837334054  MEMB      64              0.0000000000
      8533        64  POPC      H18T            1.1936192483       21.5070360797       -2.9474840933  MEMB      64              0.0000000000
      8534        64  POPC      C33            -0.0487514974       22.3191916392      -13.8417171298  MEMB      64              0.0000000000
      8535        64  POPC      H3X            -0.3936383949       21.3870483013      -13.3452466560  MEMB      64              0.0000000000
      8536        64  POPC      H3Y            -0.7458394919       23.1220215631      -13.5194541047  MEMB      64              0.0000000000
      8537        64  POPC      C34             1.4174592396       22.4979454962      -13.2858520976  MEMB      64              0.0000000000
      8538        64  POPC      H4X             2.1357703938       22.4169972876      -14.1295329307  MEMB      64              0.0000000000
      8539        64  POPC      H4Y             1.5869212822       21.6604990302      -12.5757201878  MEMB      64              0.0000000000
      8540        64  POPC      C35             1.6357434983       23.8641792646      -12.6190732018  MEMB      64              0.0000000000
      8541        64  POPC      H5X             1.0504863877       24.5278617053      -13.2908772353  MEMB      64              0.0000000000
      8542        64  POPC      H5Y             2.7172221982       24.0856649011      -12.4938976821  MEMB      64              0.0000000000
      8543        64  POPC      C36             0.9788523819       23.9517915735      -11.2851323619  MEMB      64              0.0000000000
      8544        64  POPC      H6X            -0.0981443785       23.6829648324      -11.2389679191  MEMB      64              0.0000000000
      8545        64  POPC      H6Y             1.0815796527       24.9993726776      -10.9296867648  MEMB      64              0.0000000000
      8546        64  POPC      C37             1.8121195511       23.3633377709      -10.2147707714  MEMB      64              0.0000000000
      8547        64  POPC      H7X             2.8262157378       23.8155657007      -10.2524470422  MEMB      64              0.0000000000
      8548        64  POPC      H7Y             2.0036908485       22.2851413233      -10.4021580833  MEMB      64              0.0000000000
      8549        64  POPC      C38             1.1493610739       23.4906252820       -8.8147710700  MEMB      64              0.0000000000
      8550        64  POPC      H8X             0.0639647398       23.3392453183       -8.9973075171  MEMB      64              0.0000000000
      8551        64  POPC      H8Y             1.3596146581       24.5234770695       -8.4635845385  MEMB      64              0.0000000000
      8552        64  POPC      C39             1.7333169146       22.5252309951       -7.7872003288  MEMB      64              0.0000000000
      8553        64  POPC      H9X             1.4904604400       21.4593656381       -7.9853744140  MEMB      64              0.0000000000
      8554        64  POPC      H9Y             1.1679853754       22.8616303353       -6.8919034064  MEMB      64              0.0000000000
      8555        64  POPC      C310            3.2450092003       22.7557277322       -7.5651208774  MEMB      64              0.0000000000
      8556        64  POPC      H10X            3.4469218242       23.8447114068       -7.4775580097  MEMB      64              0.0000000000
      8557        64  POPC      H10Y            3.5683501466       22.4174524219       -8.5727627108  MEMB      64              0.0000000000
      8558        64  POPC      C311            3.7696674638       21.8314472982       -6.4455300519  MEMB      64              0.0000000000
      8559        64  POPC      H11X            3.4590334005       20.7708025576       -6.5589323904  MEMB      64              0.0000000000
      8560        64  POPC      H11Y            3.3081800130       22.1525992983       -5.4872958488  MEMB      64              0.0000000000
      8561        64  POPC      C312            5.3151611426       21.8850671566       -6.3988965831  MEMB      64              0.0000000000
      8562        64  POPC      H12X            5.7352959331       22.9114579420       -6.4646957549  MEMB      64              0.0000000000
      8563        64  POPC      H12Y            5.6562201878       21.3298060472       -7.2987209484  MEMB      64              0.0000000000
      8564        64  POPC      C313            5.8254886543       21.2207279757       -5.1184295925  MEMB      64              0.0000000000
      8565        64  POPC      H13X            6.6852600544       20.5615138468       -5.3645001084  MEMB      64              0.0000000000
      8566        64  POPC      H13Y            5.1267937034       20.4048128420       -4.8348303072  MEMB      64              0.0000000000
      8567        64  POPC      C314            6.1654517909       22.2052130217       -3.9726377414  MEMB      64              0.0000000000
      8568        64  POPC      H14X            5.3920613235       22.9348073342       -3.6503333099  MEMB      64              0.0000000000
      8569        64  POPC      H14Y            7.0171953581       22.8581583321       -4.2598941409  MEMB      64              0.0000000000
      8570        64  POPC      C315            6.7464122949       21.3622072624       -2.8144171547  MEMB      64              0.0000000000
      8571        64  POPC      H15X            7.3973438065       21.9887233162       -2.1678205200  MEMB      64              0.0000000000
      8572        64  POPC      H15Y            7.4469748478       20.5935192207       -3.2051244777  MEMB      64              0.0000000000
      8573        64  POPC      C316            5.6862712883       20.8282873904       -1.8846836561  MEMB      64              0.0000000000
      8574        64  POPC      H16X            6.0719879495       20.3233525201       -0.9733198046  MEMB      64              0.0000000000
      8575        64  POPC      H16Y            5.0361552322       20.1397435159       -2.4656975833  MEMB      64              0.0000000000
      8576        64  POPC      H16Z            5.1672684245       21.7347506367       -1.5061581181  MEMB      64              0.0000000000
      8577        65  POPC      N              22.1879570327        6.2257040567      -19.5429554877  MEMB      65              0.0000000000
      8578        65  POPC      C12            22.3034767412        6.8212634029      -18.2109991492  MEMB      65              0.0000000000
      8579        65  POPC      H12A           23.0945817634        6.3947027955      -17.6121678367  MEMB      65              0.0000000000
      8580        65  POPC      H12B           21.4807119503        6.5495178016      -17.5663189045  MEMB      65              0.0000000000
      8581        65  POPC      C13            23.5442475269        6.2620120329      -20.3024539303  MEMB      65              0.0000000000
      8582        65  POPC      H13A           23.4373911186        5.8397425549      -21.2907201929  MEMB      65              0.0000000000
      8583        65  POPC      H13B           23.7222438279        7.3069544318      -20.5093666007  MEMB      65              0.0000000000
      8584        65  POPC      H13C           24.2183009827        5.6444495054      -19.7274160667  MEMB      65              0.0000000000
      8585        65  POPC      C14            21.8686202037        4.7392579937      -19.4893480561  MEMB      65              0.0000000000
      8586        65  POPC      H14A           21.9958342033        4.3487884458      -20.4882225809  MEMB      65              0.0000000000
      8587        65  POPC      H14B           22.3913983219        4.1900762835      -18.7202561312  MEMB      65              0.0000000000
      8588        65  POPC      H14C           20.8071964723        4.6708276065      -19.3020059392  MEMB      65              0.0000000000
      8589        65  POPC      C15            21.0996831219        6.8302672792      -20.4869526773  MEMB      65              0.0000000000
      8590        65  POPC      H15A           20.1809995473        6.8281744247      -19.9191357785  MEMB      65              0.0000000000
      8591        65  POPC      H15B           21.1470310659        6.0732171846      -21.2557395045  MEMB      65              0.0000000000
      8592        65  POPC      H15C           21.4430983787        7.8183649797      -20.7555213158  MEMB      65              0.0000000000
      8593        65  POPC      C11            22.2078865791        8.3933162694      -17.9950426778  MEMB      65              0.0000000000
      8594        65  POPC      H11A           22.3777054571        8.6224873254      -16.9212814916  MEMB      65              0.0000000000
      8595        65  POPC      H11B           21.2659303982        8.7825902388      -18.4372026005  MEMB      65              0.0000000000
      8596        65  POPC      P              23.3380480663       10.7415715963      -18.6498069670  MEMB      65              0.0000000000
      8597        65  POPC      O13            22.2229331839       11.2017620748      -19.5347833295  MEMB      65              0.0000000000
      8598        65  POPC      O14            24.6777851082       11.2410505907      -18.9797928766  MEMB      65              0.0000000000
      8599        65  POPC      O12            23.2700826464        9.1037046000      -18.6540162450  MEMB      65              0.0000000000
      8600        65  POPC      O11            23.0348056107       11.0406530969      -17.1538486050  MEMB      65              0.0000000000
      8601        65  POPC      C1             24.0977193590       11.0815014047      -16.2148087599  MEMB      65              0.0000000000
      8602        65  POPC      HA             24.7950335782       11.9415502928      -16.3064031050  MEMB      65              0.0000000000
      8603        65  POPC      HB             24.8127543532       10.2479317437      -16.3827600534  MEMB      65              0.0000000000
      8604        65  POPC      C2             23.4300761652       10.9558688481      -14.7747574124  MEMB      65              0.0000000000
      8605        65  POPC      HS             24.1969749715       11.2234126890      -14.0167287400  MEMB      65              0.0000000000
      8606        65  POPC      O21            22.9679829821        9.6205814681      -14.5601463864  MEMB      65              0.0000000000
      8607        65  POPC      C21            23.8902220177        8.7014923645      -14.3242804497  MEMB      65              0.0000000000
      8608        65  POPC      O22            25.0773642160        8.8769090103      -14.3454489894  MEMB      65              0.0000000000
      8609        65  POPC      C22            23.2758841166        7.2877029551      -14.1540380698  MEMB      65              0.0000000000
      8610        65  POPC      H2R            23.7894083922        6.5437751722      -14.7999369152  MEMB      65              0.0000000000
      8611        65  POPC      H2S            22.2323981512        7.2575952270      -14.5342374163  MEMB      65              0.0000000000
      8612        65  POPC      C3             22.2501668136       11.9972819075      -14.6185933692  MEMB      65              0.0000000000
      8613        65  POPC      HX             21.5525745309       11.9845414265      -15.4831879744  MEMB      65              0.0000000000
      8614        65  POPC      HY             22.7575612552       12.9847344694      -14.5760515081  MEMB      65              0.0000000000
      8615        65  POPC      O31            21.5509803520       11.6682574635      -13.4066023766  MEMB      65              0.0000000000
      8616        65  POPC      C31            20.5456264947       10.7976128125      -13.4454364451  MEMB      65              0.0000000000
      8617        65  POPC      O32            20.1096586204       10.1765186437      -14.3969809069  MEMB      65              0.0000000000
      8618        65  POPC      C32            19.9210646130       10.8814207128      -12.0268211748  MEMB      65              0.0000000000
      8619        65  POPC      H2X            19.7429530193       11.9328969882      -11.7153809453  MEMB      65              0.0000000000
      8620        65  POPC      H2Y            20.6539265751       10.3918139885      -11.3504191779  MEMB      65              0.0000000000
      8621        65  POPC      C23            23.3374010870        7.0043615313      -12.6233623777  MEMB      65              0.0000000000
      8622        65  POPC      H3R            24.4003005063        7.1179814121      -12.3206141866  MEMB      65              0.0000000000
      8623        65  POPC      H3S            23.0913751380        5.9368446841      -12.4384298978  MEMB      65              0.0000000000
      8624        65  POPC      C24            22.4974199800        7.8998262225      -11.6519618981  MEMB      65              0.0000000000
      8625        65  POPC      H4R            21.4217056810        7.7666487760      -11.8957314078  MEMB      65              0.0000000000
      8626        65  POPC      H4S            22.8605111700        8.9269329434      -11.8699930275  MEMB      65              0.0000000000
      8627        65  POPC      C25            22.7987479625        7.5555383963      -10.1920454253  MEMB      65              0.0000000000
      8628        65  POPC      H5R            23.8778594750        7.4168492098       -9.9670913374  MEMB      65              0.0000000000
      8629        65  POPC      H5S            22.3111233926        6.5667879044      -10.0545103708  MEMB      65              0.0000000000
      8630        65  POPC      C26            22.2278192105        8.5972490165       -9.2408725548  MEMB      65              0.0000000000
      8631        65  POPC      H6R            22.1823125550        8.1867043458       -8.2095129146  MEMB      65              0.0000000000
      8632        65  POPC      H6S            21.1610866488        8.7877758530       -9.4860301678  MEMB      65              0.0000000000
      8633        65  POPC      C27            23.0134101161        9.8746648539       -9.2068962547  MEMB      65              0.0000000000
      8634        65  POPC      H7R            22.9999332294       10.3454537743      -10.2131257340  MEMB      65              0.0000000000
      8635        65  POPC      H7S            24.0296302227        9.6276727031       -8.8319128338  MEMB      65              0.0000000000
      8636        65  POPC      C28            22.3514515763       10.9892406172       -8.3250341257  MEMB      65              0.0000000000
      8637        65  POPC      H8R            22.2710053599       10.7599380215       -7.2409355118  MEMB      65              0.0000000000
      8638        65  POPC      H8S            21.3070859101       10.9513069323       -8.7021050316  MEMB      65              0.0000000000
      8639        65  POPC      C29            22.9552346424       12.3631539243       -8.5393843476  MEMB      65              0.0000000000
      8640        65  POPC      H91            23.5545194943       12.4789272099       -9.4545096472  MEMB      65              0.0000000000
      8641        65  POPC      C210           22.8636181144       13.4658914962       -7.7637700543  MEMB      65              0.0000000000
      8642        65  POPC      H101           23.3293758089       14.4141436094       -8.0701806079  MEMB      65              0.0000000000
      8643        65  POPC      C211           22.1206464956       13.5264931722       -6.4734767833  MEMB      65              0.0000000000
      8644        65  POPC      H11R           21.2261673281       12.8691898274       -6.5201692140  MEMB      65              0.0000000000
      8645        65  POPC      H11S           21.6844240288       14.5482660597       -6.4768421560  MEMB      65              0.0000000000
      8646        65  POPC      C212           22.8846810089       13.2668516238       -5.1018072234  MEMB      65              0.0000000000
      8647        65  POPC      H12R           23.6733911323       14.0441408281       -5.1916942501  MEMB      65              0.0000000000
      8648        65  POPC      H12S           23.3776632897       12.2732915667       -5.1660537562  MEMB      65              0.0000000000
      8649        65  POPC      C213           22.0679963083       13.4878674894       -3.7905089013  MEMB      65              0.0000000000
      8650        65  POPC      H13R           21.5354938814       14.4589054921       -3.8790917615  MEMB      65              0.0000000000
      8651        65  POPC      H13S           22.7908491266       13.4852480082       -2.9468273567  MEMB      65              0.0000000000
      8652        65  POPC      C214           20.9478456122       12.4465785852       -3.6633261296  MEMB      65              0.0000000000
      8653        65  POPC      H14R           21.4136668382       11.5586996030       -4.1418687789  MEMB      65              0.0000000000
      8654        65  POPC      H14S           20.0670540114       12.7104956098       -4.2869247717  MEMB      65              0.0000000000
      8655        65  POPC      C215           20.6239935616       12.0871979330       -2.2271910529  MEMB      65              0.0000000000
      8656        65  POPC      H15R           19.5194374478       12.1402637983       -2.1201348635  MEMB      65              0.0000000000
      8657        65  POPC      H15S           21.0580207133       12.8732807229       -1.5729627295  MEMB      65              0.0000000000
      8658        65  POPC      C216           21.0913855406       10.6712486237       -1.6662283604  MEMB      65              0.0000000000
      8659        65  POPC      H16R           20.4927413212        9.8986561511       -2.1944779099  MEMB      65              0.0000000000
      8660        65  POPC      H16S           20.8220103983       10.6698294136       -0.5883803695  MEMB      65              0.0000000000
      8661        65  POPC      C217           22.5689540296       10.3613150456       -1.7363430361  MEMB      65              0.0000000000
      8662        65  POPC      H17R           23.0011285007       11.0598233321       -2.4844269467  MEMB      65              0.0000000000
      8663        65  POPC      H17S           22.6510793588        9.3024117328       -2.0623801900  MEMB      65              0.0000000000
      8664        65  POPC      C218           23.4991035860       10.5531996023       -0.5068025864  MEMB      65              0.0000000000
      8665        65  POPC      H18R           23.7287379776       11.6402087792       -0.5067063527  MEMB      65              0.0000000000
      8666        65  POPC      H18S           24.4819618243       10.0436996337       -0.6001873078  MEMB      65              0.0000000000
      8667        65  POPC      H18T           22.8833492343       10.3094027837        0.3852345081  MEMB      65              0.0000000000
      8668        65  POPC      C33            18.6027293338       10.2321972846      -11.9386521310  MEMB      65              0.0000000000
      8669        65  POPC      H3X            18.6954587328        9.1559758648      -12.1984010836  MEMB      65              0.0000000000
      8670        65  POPC      H3Y            17.9098548740       10.7981837060      -12.5973674099  MEMB      65              0.0000000000
      8671        65  POPC      C34            17.8452768604       10.4270675025      -10.5614106236  MEMB      65              0.0000000000
      8672        65  POPC      H4X            16.8232261430       10.0425170971      -10.7659929446  MEMB      65              0.0000000000
      8673        65  POPC      H4Y            17.8483494259       11.4956273589      -10.2572870266  MEMB      65              0.0000000000
      8674        65  POPC      C35            18.3272069626        9.6637722244       -9.3514839599  MEMB      65              0.0000000000
      8675        65  POPC      H5X            19.3578651176        9.9806695130       -9.0838252366  MEMB      65              0.0000000000
      8676        65  POPC      H5Y            18.3957352050        8.6017441942       -9.6704216445  MEMB      65              0.0000000000
      8677        65  POPC      C36            17.5225335517        9.8001769558       -8.0269414968  MEMB      65              0.0000000000
      8678        65  POPC      H6X            16.4723884207        9.5992286435       -8.3288280673  MEMB      65              0.0000000000
      8679        65  POPC      H6Y            17.6164919801       10.8239315391       -7.6057293669  MEMB      65              0.0000000000
      8680        65  POPC      C37            18.1027307373        8.8494017674       -6.9799340431  MEMB      65              0.0000000000
      8681        65  POPC      H7X            18.3271057666        7.8159069688       -7.3203239357  MEMB      65              0.0000000000
      8682        65  POPC      H7Y            17.3159282859        8.7543056074       -6.2013328720  MEMB      65              0.0000000000
      8683        65  POPC      C38            19.4383694543        9.4045029013       -6.4332489111  MEMB      65              0.0000000000
      8684        65  POPC      H8X            19.2889531616       10.4852774789       -6.2236731723  MEMB      65              0.0000000000
      8685        65  POPC      H8Y            20.2846532461        9.2681858582       -7.1400320648  MEMB      65              0.0000000000
      8686        65  POPC      C39            19.9811752916        8.7526266616       -5.1231518862  MEMB      65              0.0000000000
      8687        65  POPC      H9X            19.3338509784        9.2063726359       -4.3425059666  MEMB      65              0.0000000000
      8688        65  POPC      H9Y            21.0115281394        9.1127632527       -4.9157984142  MEMB      65              0.0000000000
      8689        65  POPC      C310           19.8715922730        7.2064200000       -5.1811696067  MEMB      65              0.0000000000
      8690        65  POPC      H10X           20.5020304953        6.7422934691       -5.9694941343  MEMB      65              0.0000000000
      8691        65  POPC      H10Y           18.7973409730        6.9641356570       -5.3281514947  MEMB      65              0.0000000000
      8692        65  POPC      C311           20.4808254617        6.5351603995       -3.9352611374  MEMB      65              0.0000000000
      8693        65  POPC      H11X           19.8343336666        5.7199061046       -3.5457361159  MEMB      65              0.0000000000
      8694        65  POPC      H11Y           20.3917108271        7.3146828883       -3.1486711873  MEMB      65              0.0000000000
      8695        65  POPC      C312           21.9358949988        6.1388119198       -4.1903574777  MEMB      65              0.0000000000
      8696        65  POPC      H12X           22.4479110161        7.0157368838       -4.6410937639  MEMB      65              0.0000000000
      8697        65  POPC      H12Y           21.9508077870        5.3465749339       -4.9691125535  MEMB      65              0.0000000000
      8698        65  POPC      C313           22.4638511764        5.4919449162       -2.8563998358  MEMB      65              0.0000000000
      8699        65  POPC      H13X           21.8971497259        4.5570462685       -2.6585747642  MEMB      65              0.0000000000
      8700        65  POPC      H13Y           22.2065725359        6.1595016393       -2.0064007250  MEMB      65              0.0000000000
      8701        65  POPC      C314           23.9724307431        5.1951450533       -2.8784400718  MEMB      65              0.0000000000
      8702        65  POPC      H14X           24.2339857361        4.5859514582       -3.7699518473  MEMB      65              0.0000000000
      8703        65  POPC      H14Y           24.0695050700        4.5080975335       -2.0107640095  MEMB      65              0.0000000000
      8704        65  POPC      C315           24.8867635751        6.4596336422       -2.5352247726  MEMB      65              0.0000000000
      8705        65  POPC      H15X           24.2849072788        7.3007579191       -2.9409345315  MEMB      65              0.0000000000
      8706        65  POPC      H15Y           25.8692678022        6.3870548190       -3.0487810553  MEMB      65              0.0000000000
      8707        65  POPC      C316           25.2273575537        6.6745857982       -1.0253785869  MEMB      65              0.0000000000
      8708        65  POPC      H16X           25.8848789136        7.5520444649       -0.8463464393  MEMB      65              0.0000000000
      8709        65  POPC      H16Y           25.6092255173        5.7390453879       -0.5635769034  MEMB      65              0.0000000000
      8710        65  POPC      H16Z           24.2360818747        6.8595041658       -0.5590125340  MEMB      65              0.0000000000
      8711        66  POPC      N             -22.0955968819      -10.6697910783      -18.7204842458  MEMB      66              0.0000000000
      8712        66  POPC      C12           -20.8866250137      -10.2041349345      -19.5643904850  MEMB      66              0.0000000000
      8713        66  POPC      H12A          -20.1865320922       -9.6274714028      -18.9781063857  MEMB      66              0.0000000000
      8714        66  POPC      H12B          -21.1891788648       -9.5272228210      -20.3496619408  MEMB      66              0.0000000000
      8715        66  POPC      C13           -21.7054780558      -11.7686008113      -17.7028803134  MEMB      66              0.0000000000
      8716        66  POPC      H13A          -21.4500335975      -12.6805178288      -18.2220675952  MEMB      66              0.0000000000
      8717        66  POPC      H13B          -20.9050346020      -11.3731393406      -17.0951792946  MEMB      66              0.0000000000
      8718        66  POPC      H13C          -22.5264984439      -11.9279771982      -17.0195614328  MEMB      66              0.0000000000
      8719        66  POPC      C14           -22.6612489223       -9.5444025444      -17.9536451113  MEMB      66              0.0000000000
      8720        66  POPC      H14A          -23.4878890698       -9.8850168006      -17.3478004707  MEMB      66              0.0000000000
      8721        66  POPC      H14B          -21.9754903720       -9.0417432680      -17.2877106159  MEMB      66              0.0000000000
      8722        66  POPC      H14C          -23.1302464258       -8.8386268705      -18.6232138629  MEMB      66              0.0000000000
      8723        66  POPC      C15           -23.1659190179      -11.2645844815      -19.5577148217  MEMB      66              0.0000000000
      8724        66  POPC      H15A          -23.6996611071      -10.5935443536      -20.2143918116  MEMB      66              0.0000000000
      8725        66  POPC      H15B          -23.8709585078      -11.7332872902      -18.8871650250  MEMB      66              0.0000000000
      8726        66  POPC      H15C          -22.8934243250      -12.0850989317      -20.2049415943  MEMB      66              0.0000000000
      8727        66  POPC      C11           -19.8783005293      -11.2545683939      -20.0747522686  MEMB      66              0.0000000000
      8728        66  POPC      H11A          -19.1316044601      -10.7917104309      -20.7548465953  MEMB      66              0.0000000000
      8729        66  POPC      H11B          -20.3521597433      -12.1581872035      -20.5143561067  MEMB      66              0.0000000000
      8730        66  POPC      P             -18.3247414918      -13.0130303986      -19.1209630370  MEMB      66              0.0000000000
      8731        66  POPC      O13           -17.3132764009      -13.2059322524      -17.9850501877  MEMB      66              0.0000000000
      8732        66  POPC      O14           -17.8707414974      -13.2319162048      -20.5091706644  MEMB      66              0.0000000000
      8733        66  POPC      O12           -19.0590420548      -11.6319647137      -18.9830969088  MEMB      66              0.0000000000
      8734        66  POPC      O11           -19.6064114305      -13.9442888091      -18.8278519574  MEMB      66              0.0000000000
      8735        66  POPC      C1            -19.5099655362      -15.3163367147      -18.4656430820  MEMB      66              0.0000000000
      8736        66  POPC      HA            -18.4577556524      -15.6722279294      -18.4429125882  MEMB      66              0.0000000000
      8737        66  POPC      HB            -20.1735836732      -15.9522665537      -19.0897627695  MEMB      66              0.0000000000
      8738        66  POPC      C2            -19.9644745863      -15.5547021765      -16.9959363432  MEMB      66              0.0000000000
      8739        66  POPC      HS            -21.0743041180      -15.5956532875      -16.9655649512  MEMB      66              0.0000000000
      8740        66  POPC      O21           -19.5937319514      -14.3777975211      -16.1948233446  MEMB      66              0.0000000000
      8741        66  POPC      C21           -20.4835556701      -14.0429383471      -15.2685983270  MEMB      66              0.0000000000
      8742        66  POPC      O22           -21.5994371533      -14.4958991268      -15.1039884007  MEMB      66              0.0000000000
      8743        66  POPC      C22           -19.9253796690      -12.8141714187      -14.5067088924  MEMB      66              0.0000000000
      8744        66  POPC      H2R           -20.2695050240      -11.9085377309      -15.0505162186  MEMB      66              0.0000000000
      8745        66  POPC      H2S           -18.8366028163      -12.8582762845      -14.2900508728  MEMB      66              0.0000000000
      8746        66  POPC      C3            -19.3465189415      -16.8346626481      -16.3893994630  MEMB      66              0.0000000000
      8747        66  POPC      HX            -18.2407506547      -16.8735750489      -16.4898148453  MEMB      66              0.0000000000
      8748        66  POPC      HY            -19.6168635844      -17.6849741907      -17.0513701262  MEMB      66              0.0000000000
      8749        66  POPC      O31           -19.6632860729      -17.0076209126      -14.9788767737  MEMB      66              0.0000000000
      8750        66  POPC      C31           -18.7858312783      -16.5417407253      -14.0831174199  MEMB      66              0.0000000000
      8751        66  POPC      O32           -17.7275702510      -15.9014712496      -14.2684891570  MEMB      66              0.0000000000
      8752        66  POPC      C32           -19.3231710031      -17.0577749706      -12.7088175425  MEMB      66              0.0000000000
      8753        66  POPC      H2X           -19.5578528333      -18.1307841175      -12.8758413727  MEMB      66              0.0000000000
      8754        66  POPC      H2Y           -20.2193761590      -16.4300917814      -12.5160705328  MEMB      66              0.0000000000
      8755        66  POPC      C23           -20.4659869496      -12.8483287586      -13.0731755279  MEMB      66              0.0000000000
      8756        66  POPC      H3R           -20.3233532632      -13.7994335653      -12.5169596294  MEMB      66              0.0000000000
      8757        66  POPC      H3S           -21.5515119567      -12.6125638771      -13.0539074825  MEMB      66              0.0000000000
      8758        66  POPC      C24           -19.8275973251      -11.6988551725      -12.1653717425  MEMB      66              0.0000000000
      8759        66  POPC      H4R           -20.5134280877      -11.5829874016      -11.2990393255  MEMB      66              0.0000000000
      8760        66  POPC      H4S           -19.8539662754      -10.8265988505      -12.8529720468  MEMB      66              0.0000000000
      8761        66  POPC      C25           -18.3779651841      -12.0000814228      -11.6018913514  MEMB      66              0.0000000000
      8762        66  POPC      H5R           -17.7446614222      -11.9338719506      -12.5123112351  MEMB      66              0.0000000000
      8763        66  POPC      H5S           -18.4189319526      -13.0791827226      -11.3407725677  MEMB      66              0.0000000000
      8764        66  POPC      C26           -17.8197796971      -11.2211955468      -10.3988557844  MEMB      66              0.0000000000
      8765        66  POPC      H6R           -18.6667834814      -10.8277672646       -9.7970925708  MEMB      66              0.0000000000
      8766        66  POPC      H6S           -17.2351645275      -10.3469184888      -10.7568865163  MEMB      66              0.0000000000
      8767        66  POPC      C27           -16.9186376183      -12.1128952074       -9.5555444541  MEMB      66              0.0000000000
      8768        66  POPC      H7R           -16.2453843943      -12.5852566353      -10.3024887938  MEMB      66              0.0000000000
      8769        66  POPC      H7S           -17.4608112866      -12.9929352106       -9.1482383108  MEMB      66              0.0000000000
      8770        66  POPC      C28           -15.9641886916      -11.3216897362       -8.6015056114  MEMB      66              0.0000000000
      8771        66  POPC      H8R           -16.4742563126      -10.7396165200       -7.8044218114  MEMB      66              0.0000000000
      8772        66  POPC      H8S           -15.5002375008      -10.4769951530       -9.1542811021  MEMB      66              0.0000000000
      8773        66  POPC      C29           -14.8650517150      -12.0793997741       -7.9849497908  MEMB      66              0.0000000000
      8774        66  POPC      H91           -14.0474711436      -12.3259046988       -8.6783449080  MEMB      66              0.0000000000
      8775        66  POPC      C210          -14.8901100586      -12.6660461537       -6.7981005603  MEMB      66              0.0000000000
      8776        66  POPC      H101          -14.1014449945      -13.3670128336       -6.4872105773  MEMB      66              0.0000000000
      8777        66  POPC      C211          -15.9456429668      -12.6660424863       -5.7439399346  MEMB      66              0.0000000000
      8778        66  POPC      H11R          -16.7917098805      -12.0839564327       -6.1678122387  MEMB      66              0.0000000000
      8779        66  POPC      H11S          -15.6571414319      -12.3059780646       -4.7332756363  MEMB      66              0.0000000000
      8780        66  POPC      C212          -16.5385042168      -14.0487206871       -5.5596938888  MEMB      66              0.0000000000
      8781        66  POPC      H12R          -15.7422986248      -14.7987658347       -5.3652462423  MEMB      66              0.0000000000
      8782        66  POPC      H12S          -16.9999640119      -14.3790870707       -6.5148031071  MEMB      66              0.0000000000
      8783        66  POPC      C213          -17.4156914606      -14.2102153076       -4.2981024070  MEMB      66              0.0000000000
      8784        66  POPC      H13R          -18.0943774309      -13.3309183414       -4.3214096272  MEMB      66              0.0000000000
      8785        66  POPC      H13S          -17.0298042720      -14.1611798692       -3.2574259700  MEMB      66              0.0000000000
      8786        66  POPC      C214          -18.2480709714      -15.5072384625       -4.3478384739  MEMB      66              0.0000000000
      8787        66  POPC      H14R          -17.5148034660      -16.3347449817       -4.2388771126  MEMB      66              0.0000000000
      8788        66  POPC      H14S          -18.7565451248      -15.7808235765       -5.2970100376  MEMB      66              0.0000000000
      8789        66  POPC      C215          -19.2558521452      -15.6470171572       -3.2746771893  MEMB      66              0.0000000000
      8790        66  POPC      H15R          -18.8083285023      -15.4047032389       -2.2870905354  MEMB      66              0.0000000000
      8791        66  POPC      H15S          -19.6433409300      -16.6864488056       -3.2134017348  MEMB      66              0.0000000000
      8792        66  POPC      C216          -20.5679026118      -14.8677274786       -3.4473336250  MEMB      66              0.0000000000
      8793        66  POPC      H16R          -20.9736785542      -15.1896883345       -4.4301904088  MEMB      66              0.0000000000
      8794        66  POPC      H16S          -20.5143756601      -13.7600137194       -3.3808046126  MEMB      66              0.0000000000
      8795        66  POPC      C217          -21.6392187699      -15.3300680108       -2.4253106816  MEMB      66              0.0000000000
      8796        66  POPC      H17R          -21.2111033583      -15.2732037465       -1.4016880997  MEMB      66              0.0000000000
      8797        66  POPC      H17S          -22.0152605431      -16.3384343543       -2.7011922707  MEMB      66              0.0000000000
      8798        66  POPC      C218          -22.8003497598      -14.3357403372       -2.3212915108  MEMB      66              0.0000000000
      8799        66  POPC      H18R          -22.4219965556      -13.2913046434       -2.3032856032  MEMB      66              0.0000000000
      8800        66  POPC      H18S          -23.3451535699      -14.4645399548       -1.3616459784  MEMB      66              0.0000000000
      8801        66  POPC      H18T          -23.4824334764      -14.3409392486       -3.1982506951  MEMB      66              0.0000000000
      8802        66  POPC      C33           -18.1783592648      -17.0468131428      -11.6638942775  MEMB      66              0.0000000000
      8803        66  POPC      H3X           -17.7233199989      -16.0571314019      -11.4452840611  MEMB      66              0.0000000000
      8804        66  POPC      H3Y           -17.3436224155      -17.6678204530      -12.0536196535  MEMB      66              0.0000000000
      8805        66  POPC      C34           -18.6437026076      -17.6232297476      -10.3421438164  MEMB      66              0.0000000000
      8806        66  POPC      H4X           -17.8086768276      -17.6489810650       -9.6097576414  MEMB      66              0.0000000000
      8807        66  POPC      H4Y           -18.9907476583      -18.6636483102      -10.5193732214  MEMB      66              0.0000000000
      8808        66  POPC      C35           -19.8929622858      -16.9384506327       -9.6851347306  MEMB      66              0.0000000000
      8809        66  POPC      H5X           -20.3555274116      -17.5184938630       -8.8581500047  MEMB      66              0.0000000000
      8810        66  POPC      H5Y           -20.7385378762      -17.0115445144      -10.4020589683  MEMB      66              0.0000000000
      8811        66  POPC      C36           -19.3639214186      -15.5599104741       -9.2492602450  MEMB      66              0.0000000000
      8812        66  POPC      H6X           -19.1456643798      -14.9883640534      -10.1766322583  MEMB      66              0.0000000000
      8813        66  POPC      H6Y           -18.4464136688      -15.6779319424       -8.6339783449  MEMB      66              0.0000000000
      8814        66  POPC      C37           -20.4803130047      -14.8728834519       -8.4301549852  MEMB      66              0.0000000000
      8815        66  POPC      H7X           -20.6954180067      -15.4814878388       -7.5259141513  MEMB      66              0.0000000000
      8816        66  POPC      H7Y           -21.4064152068      -14.7755089149       -9.0361044931  MEMB      66              0.0000000000
      8817        66  POPC      C38           -20.1441335419      -13.4390789808       -7.8996413505  MEMB      66              0.0000000000
      8818        66  POPC      H8X           -19.8617783072      -12.8210652922       -8.7786498673  MEMB      66              0.0000000000
      8819        66  POPC      H8Y           -19.2835777217      -13.6464052179       -7.2282389630  MEMB      66              0.0000000000
      8820        66  POPC      C39           -21.1310495659      -12.7316445551       -6.8694691386  MEMB      66              0.0000000000
      8821        66  POPC      H9X           -21.4669539942      -13.4500271769       -6.0913842848  MEMB      66              0.0000000000
      8822        66  POPC      H9Y           -21.9915605284      -12.3704507499       -7.4722799873  MEMB      66              0.0000000000
      8823        66  POPC      C310          -20.5415880202      -11.4258520324       -6.3138169342  MEMB      66              0.0000000000
      8824        66  POPC      H10X          -20.0895316470      -10.9649117530       -7.2179745681  MEMB      66              0.0000000000
      8825        66  POPC      H10Y          -19.7488331768      -11.6911914668       -5.5820685490  MEMB      66              0.0000000000
      8826        66  POPC      C311          -21.5228321066      -10.4406973988       -5.6129149367  MEMB      66              0.0000000000
      8827        66  POPC      H11X          -21.9436289437      -11.0648764277       -4.7958155410  MEMB      66              0.0000000000
      8828        66  POPC      H11Y          -22.3977082773      -10.0477205355       -6.1737017651  MEMB      66              0.0000000000
      8829        66  POPC      C312          -20.8507214282       -9.3050243492       -4.8293646935  MEMB      66              0.0000000000
      8830        66  POPC      H12X          -21.6419826742       -8.5835436792       -4.5332359105  MEMB      66              0.0000000000
      8831        66  POPC      H12Y          -20.1318639571       -8.8887594980       -5.5671237219  MEMB      66              0.0000000000
      8832        66  POPC      C313          -20.0376710190       -9.6918098389       -3.5639259828  MEMB      66              0.0000000000
      8833        66  POPC      H13X          -19.4875297164       -8.7812222600       -3.2437761077  MEMB      66              0.0000000000
      8834        66  POPC      H13Y          -19.3450383925      -10.5565133153       -3.6468050913  MEMB      66              0.0000000000
      8835        66  POPC      C314          -20.9703943127      -10.0598647107       -2.4135481063  MEMB      66              0.0000000000
      8836        66  POPC      H14X          -21.8576216818      -10.5245802664       -2.8943672402  MEMB      66              0.0000000000
      8837        66  POPC      H14Y          -21.2928497783       -9.1387101206       -1.8826826986  MEMB      66              0.0000000000
      8838        66  POPC      C315          -20.1754300015      -11.0777666320       -1.4447954256  MEMB      66              0.0000000000
      8839        66  POPC      H15X          -19.7935310489      -11.9005927888       -2.0862249276  MEMB      66              0.0000000000
      8840        66  POPC      H15Y          -20.8534430689      -11.6530040146       -0.7786713385  MEMB      66              0.0000000000
      8841        66  POPC      C316          -18.9894123985      -10.5827802466       -0.6956412063  MEMB      66              0.0000000000
      8842        66  POPC      H16X          -18.1154580711      -10.3223944015       -1.3302476552  MEMB      66              0.0000000000
      8843        66  POPC      H16Y          -18.6578386604      -11.3550747134        0.0309546667  MEMB      66              0.0000000000
      8844        66  POPC      H16Z          -19.2363659491       -9.6679997924       -0.1155461123  MEMB      66              0.0000000000
      8845        67  POPC      N             -14.9451710264      -17.0391423161      -18.6247278662  MEMB      67              0.0000000000
      8846        67  POPC      C12           -14.4353745987      -18.2673521692      -17.8192081809  MEMB      67              0.0000000000
      8847        67  POPC      H12A          -15.2422093745      -18.9828649292      -17.8780227520  MEMB      67              0.0000000000
      8848        67  POPC      H12B          -14.5168598867      -17.8771129074      -16.8154785628  MEMB      67              0.0000000000
      8849        67  POPC      C13           -14.0052356985      -15.8667206649      -18.7624474515  MEMB      67              0.0000000000
      8850        67  POPC      H13A          -13.4529129956      -15.7250935311      -17.8452335040  MEMB      67              0.0000000000
      8851        67  POPC      H13B          -13.2878460871      -16.1134481605      -19.5311332858  MEMB      67              0.0000000000
      8852        67  POPC      H13C          -14.5289346125      -14.9590565851      -19.0237626066  MEMB      67              0.0000000000
      8853        67  POPC      C14           -15.4125073259      -17.4455915156      -19.9923920725  MEMB      67              0.0000000000
      8854        67  POPC      H14A          -14.6441277081      -17.5989400327      -20.7356801044  MEMB      67              0.0000000000
      8855        67  POPC      H14B          -16.0424510702      -18.3228427531      -19.9934608052  MEMB      67              0.0000000000
      8856        67  POPC      H14C          -16.0265312396      -16.6038657560      -20.2767728639  MEMB      67              0.0000000000
      8857        67  POPC      C15           -16.2104940951      -16.6005942106      -17.9362039806  MEMB      67              0.0000000000
      8858        67  POPC      H15A          -16.0963359962      -16.5162315999      -16.8655730021  MEMB      67              0.0000000000
      8859        67  POPC      H15B          -17.0689793780      -17.2322073389      -18.1107544938  MEMB      67              0.0000000000
      8860        67  POPC      H15C          -16.3716479661      -15.6539534450      -18.4304719505  MEMB      67              0.0000000000
      8861        67  POPC      C11           -13.1123298381      -18.8410971159      -18.2099318856  MEMB      67              0.0000000000
      8862        67  POPC      H11A          -12.9097699197      -19.5809681017      -17.4062644033  MEMB      67              0.0000000000
      8863        67  POPC      H11B          -12.3438536370      -18.0407639314      -18.2667822197  MEMB      67              0.0000000000
      8864        67  POPC      P             -14.2126839129      -20.8102421069      -19.6070360368  MEMB      67              0.0000000000
      8865        67  POPC      O13           -13.4875150997      -21.9376329546      -20.1707814227  MEMB      67              0.0000000000
      8866        67  POPC      O14           -15.3965484112      -20.3762801842      -20.3214755390  MEMB      67              0.0000000000
      8867        67  POPC      O12           -13.2558953601      -19.4842068330      -19.4818926891  MEMB      67              0.0000000000
      8868        67  POPC      O11           -14.5444758602      -21.0705615156      -18.0739028507  MEMB      67              0.0000000000
      8869        67  POPC      C1            -15.6308748107      -21.9105525965      -17.8008929740  MEMB      67              0.0000000000
      8870        67  POPC      HA            -15.5204536313      -22.8906627512      -18.3122752605  MEMB      67              0.0000000000
      8871        67  POPC      HB            -16.5923560690      -21.5015631526      -18.1785204715  MEMB      67              0.0000000000
      8872        67  POPC      C2            -15.6979730382      -22.1595452338      -16.2880740878  MEMB      67              0.0000000000
      8873        67  POPC      HS            -16.5175933597      -22.8611120302      -16.0228425034  MEMB      67              0.0000000000
      8874        67  POPC      O21           -15.8330537884      -20.8400122764      -15.6794377271  MEMB      67              0.0000000000
      8875        67  POPC      C21           -16.4797113890      -20.7256685069      -14.4824324946  MEMB      67              0.0000000000
      8876        67  POPC      O22           -16.9289517093      -21.7102033530      -13.9436501565  MEMB      67              0.0000000000
      8877        67  POPC      C22           -16.3872989926      -19.2247704852      -13.9959418013  MEMB      67              0.0000000000
      8878        67  POPC      H2R           -17.4176558565      -18.9062032185      -13.7291077130  MEMB      67              0.0000000000
      8879        67  POPC      H2S           -15.9621555225      -18.5945796731      -14.8061481254  MEMB      67              0.0000000000
      8880        67  POPC      C3            -14.4299967211      -22.8466077973      -15.7454002800  MEMB      67              0.0000000000
      8881        67  POPC      HX            -14.2559761294      -23.8051416437      -16.2794887663  MEMB      67              0.0000000000
      8882        67  POPC      HY            -14.5403473907      -23.0579008260      -14.6602740883  MEMB      67              0.0000000000
      8883        67  POPC      O31           -13.3264400379      -21.9733734388      -15.8485690948  MEMB      67              0.0000000000
      8884        67  POPC      C31           -12.2452649639      -22.3081653196      -15.1946362589  MEMB      67              0.0000000000
      8885        67  POPC      O32           -12.2407436604      -23.1779736641      -14.2837650107  MEMB      67              0.0000000000
      8886        67  POPC      C32           -11.1211247788      -21.3329773638      -15.4627369194  MEMB      67              0.0000000000
      8887        67  POPC      H2X           -11.3561640050      -20.9304367332      -16.4712200108  MEMB      67              0.0000000000
      8888        67  POPC      H2Y           -10.1331188207      -21.8402593611      -15.4339309231  MEMB      67              0.0000000000
      8889        67  POPC      C23           -15.4547977292      -19.0520934674      -12.7695071389  MEMB      67              0.0000000000
      8890        67  POPC      H3R           -14.5116538602      -19.5731614070      -13.0402263488  MEMB      67              0.0000000000
      8891        67  POPC      H3S           -15.8364090507      -19.6709378091      -11.9294326333  MEMB      67              0.0000000000
      8892        67  POPC      C24           -15.1233123703      -17.6450849490      -12.5046207186  MEMB      67              0.0000000000
      8893        67  POPC      H4R           -16.1086343389      -17.1547342566      -12.3529049505  MEMB      67              0.0000000000
      8894        67  POPC      H4S           -14.6224118941      -17.1874514597      -13.3843885239  MEMB      67              0.0000000000
      8895        67  POPC      C25           -14.0831860903      -17.5231669436      -11.3099678761  MEMB      67              0.0000000000
      8896        67  POPC      H5R           -13.8367392210      -16.4413037493      -11.2537784653  MEMB      67              0.0000000000
      8897        67  POPC      H5S           -13.1778340653      -18.1071994164      -11.5811959669  MEMB      67              0.0000000000
      8898        67  POPC      C26           -14.5672998141      -18.0410967510       -9.9694252089  MEMB      67              0.0000000000
      8899        67  POPC      H6R           -14.4585012025      -19.1443745074      -10.0419653036  MEMB      67              0.0000000000
      8900        67  POPC      H6S           -15.6203616439      -17.7109459758       -9.8414318488  MEMB      67              0.0000000000
      8901        67  POPC      C27           -13.7588484649      -17.4735618510       -8.8021611509  MEMB      67              0.0000000000
      8902        67  POPC      H7R           -13.5231231693      -16.4235249112       -9.0781636989  MEMB      67              0.0000000000
      8903        67  POPC      H7S           -12.8055591954      -18.0370902552       -8.7127401172  MEMB      67              0.0000000000
      8904        67  POPC      C28           -14.4414965100      -17.4980032199       -7.4323479408  MEMB      67              0.0000000000
      8905        67  POPC      H8R           -13.6830911020      -17.1808933699       -6.6849635837  MEMB      67              0.0000000000
      8906        67  POPC      H8S           -14.6558275611      -18.5730377962       -7.2515617290  MEMB      67              0.0000000000
      8907        67  POPC      C29           -15.6603487822      -16.6416435851       -7.3074297940  MEMB      67              0.0000000000
      8908        67  POPC      H91           -15.5634323327      -15.5493907538       -7.2203058990  MEMB      67              0.0000000000
      8909        67  POPC      C210          -16.9391206067      -17.1317068520       -7.4729073428  MEMB      67              0.0000000000
      8910        67  POPC      H101          -17.7205497008      -16.3654859762       -7.3621178691  MEMB      67              0.0000000000
      8911        67  POPC      C211          -17.4164613819      -18.5659348652       -7.7957387601  MEMB      67              0.0000000000
      8912        67  POPC      H11R          -16.6218228442      -18.9591462495       -8.4652572014  MEMB      67              0.0000000000
      8913        67  POPC      H11S          -18.3220028432      -18.4940971128       -8.4353901744  MEMB      67              0.0000000000
      8914        67  POPC      C212          -17.6826659436      -19.5330366570       -6.6867588106  MEMB      67              0.0000000000
      8915        67  POPC      H12R          -18.6340528207      -19.2988327586       -6.1629912088  MEMB      67              0.0000000000
      8916        67  POPC      H12S          -16.8538737184      -19.4872457611       -5.9482949655  MEMB      67              0.0000000000
      8917        67  POPC      C213          -17.7995197602      -20.9665428346       -7.2003254037  MEMB      67              0.0000000000
      8918        67  POPC      H13R          -16.8857034913      -21.2295963260       -7.7748370389  MEMB      67              0.0000000000
      8919        67  POPC      H13S          -18.6294110389      -20.8999824927       -7.9359685315  MEMB      67              0.0000000000
      8920        67  POPC      C214          -18.0281571790      -22.0334128737       -6.1167040970  MEMB      67              0.0000000000
      8921        67  POPC      H14R          -17.8796184299      -23.0100151942       -6.6251380577  MEMB      67              0.0000000000
      8922        67  POPC      H14S          -19.0146115286      -21.8934614659       -5.6251327528  MEMB      67              0.0000000000
      8923        67  POPC      C215          -16.9472155916      -22.0635654047       -5.0442248341  MEMB      67              0.0000000000
      8924        67  POPC      H15R          -16.9097060316      -21.1592233791       -4.3999581082  MEMB      67              0.0000000000
      8925        67  POPC      H15S          -15.9349506910      -21.9928752892       -5.4966000318  MEMB      67              0.0000000000
      8926        67  POPC      C216          -16.9532461454      -23.3463673345       -4.1982979435  MEMB      67              0.0000000000
      8927        67  POPC      H16R          -16.7932770251      -24.2081949902       -4.8809286992  MEMB      67              0.0000000000
      8928        67  POPC      H16S          -17.8736793240      -23.4696483896       -3.5884412614  MEMB      67              0.0000000000
      8929        67  POPC      C217          -15.8651211225      -23.5530441689       -3.1763024770  MEMB      67              0.0000000000
      8930        67  POPC      H17R          -14.8209875444      -23.5794351912       -3.5549973027  MEMB      67              0.0000000000
      8931        67  POPC      H17S          -15.9771415030      -24.5917524027       -2.7983377756  MEMB      67              0.0000000000
      8932        67  POPC      C218          -15.9460838616      -22.5837475168       -1.8790886524  MEMB      67              0.0000000000
      8933        67  POPC      H18R          -16.9774964987      -22.1709141009       -1.8702917326  MEMB      67              0.0000000000
      8934        67  POPC      H18S          -15.2438257737      -21.7289055700       -1.9810697741  MEMB      67              0.0000000000
      8935        67  POPC      H18T          -15.7461814079      -23.1928242926       -0.9716828510  MEMB      67              0.0000000000
      8936        67  POPC      C33           -10.9732097889      -20.1345080677      -14.4267742698  MEMB      67              0.0000000000
      8937        67  POPC      H3X           -11.9703049075      -19.6920321428      -14.2162092717  MEMB      67              0.0000000000
      8938        67  POPC      H3Y           -10.3785739528      -19.3070492892      -14.8695389947  MEMB      67              0.0000000000
      8939        67  POPC      C34           -10.2708524762      -20.5090536498      -13.1998768167  MEMB      67              0.0000000000
      8940        67  POPC      H4X            -9.1738855654      -20.6584735289      -13.2929271018  MEMB      67              0.0000000000
      8941        67  POPC      H4Y           -10.7711946008      -21.4997605117      -13.1500917773  MEMB      67              0.0000000000
      8942        67  POPC      C35           -10.5281072771      -19.7684012042      -11.8856201002  MEMB      67              0.0000000000
      8943        67  POPC      H5X           -11.6263381400      -19.7862840766      -11.7186178036  MEMB      67              0.0000000000
      8944        67  POPC      H5Y           -10.2809109548      -18.6854258764      -11.9051011364  MEMB      67              0.0000000000
      8945        67  POPC      C36            -9.9308020120      -20.4151781680      -10.6267634482  MEMB      67              0.0000000000
      8946        67  POPC      H6X            -8.8516067932      -20.2016958795      -10.4715715299  MEMB      67              0.0000000000
      8947        67  POPC      H6Y            -9.9798655352      -21.5248354491      -10.6027902467  MEMB      67              0.0000000000
      8948        67  POPC      C37           -10.5853340744      -19.8690477078       -9.3341517054  MEMB      67              0.0000000000
      8949        67  POPC      H7X           -11.6552329190      -19.8060314241       -9.6268389740  MEMB      67              0.0000000000
      8950        67  POPC      H7Y           -10.2360047142      -18.8322883998       -9.1407080687  MEMB      67              0.0000000000
      8951        67  POPC      C38           -10.3804087990      -20.7413165300       -8.1014368364  MEMB      67              0.0000000000
      8952        67  POPC      H8X            -9.2894539674      -20.7263798369       -7.8918772986  MEMB      67              0.0000000000
      8953        67  POPC      H8Y           -10.7868933367      -21.7632319314       -8.2588546677  MEMB      67              0.0000000000
      8954        67  POPC      C39           -11.1234186085      -20.1872943858       -6.8252657969  MEMB      67              0.0000000000
      8955        67  POPC      H9X           -12.1203276905      -20.6719683089       -6.8999939041  MEMB      67              0.0000000000
      8956        67  POPC      H9Y           -11.3300536760      -19.0958178531       -6.8426407853  MEMB      67              0.0000000000
      8957        67  POPC      C310          -10.3953276710      -20.5918784332       -5.4893280796  MEMB      67              0.0000000000
      8958        67  POPC      H10X           -9.6874728671      -19.7473662655       -5.3476874143  MEMB      67              0.0000000000
      8959        67  POPC      H10Y           -9.9680918206      -21.6083047731       -5.6259581541  MEMB      67              0.0000000000
      8960        67  POPC      C311          -11.3092588440      -20.7617895910       -4.2538879695  MEMB      67              0.0000000000
      8961        67  POPC      H11X          -10.6358606517      -20.7952284388       -3.3708606156  MEMB      67              0.0000000000
      8962        67  POPC      H11Y          -11.9249276830      -21.6702131848       -4.4272074700  MEMB      67              0.0000000000
      8963        67  POPC      C312          -12.2737771110      -19.5723717345       -3.9161120283  MEMB      67              0.0000000000
      8964        67  POPC      H12X          -12.5892120253      -19.2068597329       -4.9167230737  MEMB      67              0.0000000000
      8965        67  POPC      H12Y          -11.6280024002      -18.7728716030       -3.4940982461  MEMB      67              0.0000000000
      8966        67  POPC      C313          -13.4679014502      -19.9020063353       -3.1572046168  MEMB      67              0.0000000000
      8967        67  POPC      H13X          -13.1344919492      -20.4105715548       -2.2274088974  MEMB      67              0.0000000000
      8968        67  POPC      H13Y          -13.9496614068      -20.7450447960       -3.6971253328  MEMB      67              0.0000000000
      8969        67  POPC      C314          -14.5600721682      -18.8438823662       -2.9868778055  MEMB      67              0.0000000000
      8970        67  POPC      H14X          -15.4700061957      -19.3801327519       -2.6422380539  MEMB      67              0.0000000000
      8971        67  POPC      H14Y          -14.8596319856      -18.3240843582       -3.9219691984  MEMB      67              0.0000000000
      8972        67  POPC      C315          -14.2027814995      -17.8341140699       -1.9337250830  MEMB      67              0.0000000000
      8973        67  POPC      H15X          -14.8301771778      -16.9243260650       -2.0476617041  MEMB      67              0.0000000000
      8974        67  POPC      H15Y          -13.1615916350      -17.5475331725       -2.1947165951  MEMB      67              0.0000000000
      8975        67  POPC      C316          -14.4218474439      -18.3312550935       -0.4838880196  MEMB      67              0.0000000000
      8976        67  POPC      H16X          -15.5158391372      -18.4398144861       -0.3235188763  MEMB      67              0.0000000000
      8977        67  POPC      H16Y          -14.0576890075      -17.5304988763        0.1947141864  MEMB      67              0.0000000000
      8978        67  POPC      H16Z          -13.9516302264      -19.3362806738       -0.4278484355  MEMB      67              0.0000000000
      8979        68  POPC      N              17.8558070026       12.8373390780      -18.2536966728  MEMB      68              0.0000000000
      8980        68  POPC      C12            17.0072009099       13.0465730952      -19.5551148017  MEMB      68              0.0000000000
      8981        68  POPC      H12A           16.2251978356       12.3181481613      -19.3993312031  MEMB      68              0.0000000000
      8982        68  POPC      H12B           17.6735397761       12.9017509859      -20.3926225212  MEMB      68              0.0000000000
      8983        68  POPC      C13            18.9662268625       13.8759057779      -18.1480414572  MEMB      68              0.0000000000
      8984        68  POPC      H13A           19.6092072343       13.7315115945      -19.0036853857  MEMB      68              0.0000000000
      8985        68  POPC      H13B           18.5310234024       14.8641466977      -18.1286013445  MEMB      68              0.0000000000
      8986        68  POPC      H13C           19.5980891748       13.6724818244      -17.2961208803  MEMB      68              0.0000000000
      8987        68  POPC      C14            16.9574499064       12.8554813934      -17.0595533057  MEMB      68              0.0000000000
      8988        68  POPC      H14A           16.6148851487       13.8705232873      -16.9226618351  MEMB      68              0.0000000000
      8989        68  POPC      H14B           16.1274924050       12.2234383315      -17.3390030779  MEMB      68              0.0000000000
      8990        68  POPC      H14C           17.4657530360       12.3479187044      -16.2530744814  MEMB      68              0.0000000000
      8991        68  POPC      C15            18.3818418275       11.4448461104      -18.3588420616  MEMB      68              0.0000000000
      8992        68  POPC      H15A           18.9679934491       11.3511739756      -19.2610902977  MEMB      68              0.0000000000
      8993        68  POPC      H15B           17.6114313954       10.6890760768      -18.3178604295  MEMB      68              0.0000000000
      8994        68  POPC      H15C           19.0912354583       11.2907685599      -17.5592041061  MEMB      68              0.0000000000
      8995        68  POPC      C11            16.2754639381       14.4355385934      -19.7266476575  MEMB      68              0.0000000000
      8996        68  POPC      H11A           15.7660965907       14.5932333503      -18.7519691175  MEMB      68              0.0000000000
      8997        68  POPC      H11B           15.5480496451       14.2177764159      -20.5376773333  MEMB      68              0.0000000000
      8998        68  POPC      P              16.9818409600       16.9509695354      -19.6367176809  MEMB      68              0.0000000000
      8999        68  POPC      O13            15.7650183603       17.4825145415      -20.2722414493  MEMB      68              0.0000000000
      9000        68  POPC      O14            18.2263534720       17.7460252073      -19.7766709624  MEMB      68              0.0000000000
      9001        68  POPC      O12            17.1956618970       15.4336984061      -20.0816553887  MEMB      68              0.0000000000
      9002        68  POPC      O11            16.7024304435       16.8687383705      -18.1308185618  MEMB      68              0.0000000000
      9003        68  POPC      C1             17.0143685332       17.9665873336      -17.3189432341  MEMB      68              0.0000000000
      9004        68  POPC      HA             16.2841094901       18.7837829971      -17.5012449585  MEMB      68              0.0000000000
      9005        68  POPC      HB             18.0285353782       18.3816642475      -17.5019671483  MEMB      68              0.0000000000
      9006        68  POPC      C2             17.0231639306       17.4784574186      -15.8535525049  MEMB      68              0.0000000000
      9007        68  POPC      HS             17.5312349865       18.2590210551      -15.2478253770  MEMB      68              0.0000000000
      9008        68  POPC      O21            17.7371280982       16.2336072295      -15.5985813247  MEMB      68              0.0000000000
      9009        68  POPC      C21            18.9813052727       16.3223941765      -15.1479895566  MEMB      68              0.0000000000
      9010        68  POPC      O22            19.6143969994       17.3585235380      -15.1864255236  MEMB      68              0.0000000000
      9011        68  POPC      C22            19.4881083591       14.9865858885      -14.6097965238  MEMB      68              0.0000000000
      9012        68  POPC      H2R            19.7110261275       14.2690598639      -15.4282004881  MEMB      68              0.0000000000
      9013        68  POPC      H2S            18.7411131462       14.5155791365      -13.9356512582  MEMB      68              0.0000000000
      9014        68  POPC      C3             15.5729326705       17.2905047558      -15.1954252707  MEMB      68              0.0000000000
      9015        68  POPC      HX             15.0356671399       16.6853351374      -15.9566323080  MEMB      68              0.0000000000
      9016        68  POPC      HY             15.1238777972       18.3032100532      -15.1111717305  MEMB      68              0.0000000000
      9017        68  POPC      O31            15.6604146616       16.5448618355      -13.9674418801  MEMB      68              0.0000000000
      9018        68  POPC      C31            15.6623689323       17.2371364414      -12.8231836596  MEMB      68              0.0000000000
      9019        68  POPC      O32            15.5297886625       18.4288447958      -12.7133905704  MEMB      68              0.0000000000
      9020        68  POPC      C32            15.9314473590       16.2039144705      -11.6566249728  MEMB      68              0.0000000000
      9021        68  POPC      H2X            16.3482450330       15.2366967834      -12.0103063700  MEMB      68              0.0000000000
      9022        68  POPC      H2Y            14.9893002344       15.9748345749      -11.1142209435  MEMB      68              0.0000000000
      9023        68  POPC      C23            20.8797962331       15.1493454530      -13.8445740877  MEMB      68              0.0000000000
      9024        68  POPC      H3R            21.3878643461       15.8052861540      -14.5834445701  MEMB      68              0.0000000000
      9025        68  POPC      H3S            21.4754804306       14.2132065987      -13.7886673823  MEMB      68              0.0000000000
      9026        68  POPC      C24            20.6739029822       15.8202409914      -12.5482355047  MEMB      68              0.0000000000
      9027        68  POPC      H4R            20.3772977750       15.0126245426      -11.8453115283  MEMB      68              0.0000000000
      9028        68  POPC      H4S            19.8979069578       16.6145568704      -12.5133994122  MEMB      68              0.0000000000
      9029        68  POPC      C25            21.9524123892       16.5302248696      -12.0061328412  MEMB      68              0.0000000000
      9030        68  POPC      H5R            22.0865143701       17.5188320224      -12.4950026122  MEMB      68              0.0000000000
      9031        68  POPC      H5S            22.8482556592       15.9855837261      -12.3737629662  MEMB      68              0.0000000000
      9032        68  POPC      C26            21.9029047789       16.8018061752      -10.5394720903  MEMB      68              0.0000000000
      9033        68  POPC      H6R            22.7415021298       17.3310507479      -10.0384970486  MEMB      68              0.0000000000
      9034        68  POPC      H6S            21.8318562336       15.8086245781      -10.0466602530  MEMB      68              0.0000000000
      9035        68  POPC      C27            20.7726955033       17.7444564170      -10.1997627332  MEMB      68              0.0000000000
      9036        68  POPC      H7R            19.8112703625       17.1893457426      -10.2426002165  MEMB      68              0.0000000000
      9037        68  POPC      H7S            20.6648274241       18.5493660980      -10.9579226521  MEMB      68              0.0000000000
      9038        68  POPC      C28            20.7948819044       18.4529871937       -8.8040623697  MEMB      68              0.0000000000
      9039        68  POPC      H8R            19.7951361538       18.9231078207       -8.6865211402  MEMB      68              0.0000000000
      9040        68  POPC      H8S            21.6479024342       19.1616151708       -8.8713186954  MEMB      68              0.0000000000
      9041        68  POPC      C29            21.1083935380       17.5044959458       -7.6731693267  MEMB      68              0.0000000000
      9042        68  POPC      H91            21.4118457037       16.4996729100       -8.0021787796  MEMB      68              0.0000000000
      9043        68  POPC      C210           21.1717434313       17.7592567818       -6.3968069564  MEMB      68              0.0000000000
      9044        68  POPC      H101           21.5240384354       16.9758263881       -5.7096937147  MEMB      68              0.0000000000
      9045        68  POPC      C211           20.9702313301       19.0926881114       -5.6796933069  MEMB      68              0.0000000000
      9046        68  POPC      H11R           20.9116971215       19.9820572084       -6.3429563493  MEMB      68              0.0000000000
      9047        68  POPC      H11S           21.8740475624       19.3444830235       -5.0846836032  MEMB      68              0.0000000000
      9048        68  POPC      C212           19.7455422631       19.0172718963       -4.8014733451  MEMB      68              0.0000000000
      9049        68  POPC      H12R           18.8339884675       18.5488854930       -5.2304315501  MEMB      68              0.0000000000
      9050        68  POPC      H12S           19.4685898774       20.0695313954       -4.5770447243  MEMB      68              0.0000000000
      9051        68  POPC      C213           20.0765068831       18.1704459675       -3.5438073344  MEMB      68              0.0000000000
      9052        68  POPC      H13R           21.0101291788       18.5592634819       -3.0839258751  MEMB      68              0.0000000000
      9053        68  POPC      H13S           20.2629574715       17.1308361201       -3.8884362361  MEMB      68              0.0000000000
      9054        68  POPC      C214           18.9340538559       18.2933429781       -2.5240428075  MEMB      68              0.0000000000
      9055        68  POPC      H14R           17.9783141661       18.0908221274       -3.0530692162  MEMB      68              0.0000000000
      9056        68  POPC      H14S           18.9906767234       19.3471685895       -2.1768167468  MEMB      68              0.0000000000
      9057        68  POPC      C215           18.9772723405       17.4293967552       -1.2777257412  MEMB      68              0.0000000000
      9058        68  POPC      H15R           18.1212308957       17.7649383933       -0.6540857571  MEMB      68              0.0000000000
      9059        68  POPC      H15S           19.9317434247       17.4429577775       -0.7092863911  MEMB      68              0.0000000000
      9060        68  POPC      C216           18.7866891566       15.9249266966       -1.3823347866  MEMB      68              0.0000000000
      9061        68  POPC      H16R           19.2846710098       15.6048858519       -2.3225004348  MEMB      68              0.0000000000
      9062        68  POPC      H16S           17.7093208526       15.6903574214       -1.5186283972  MEMB      68              0.0000000000
      9063        68  POPC      C217           19.3088355885       15.1944128611       -0.1692917098  MEMB      68              0.0000000000
      9064        68  POPC      H17R           18.5540629590       14.4215368521        0.0901345741  MEMB      68              0.0000000000
      9065        68  POPC      H17S           19.3782876345       15.8908833364        0.6935099474  MEMB      68              0.0000000000
      9066        68  POPC      C218           20.6532841322       14.5065123865       -0.3685665799  MEMB      68              0.0000000000
      9067        68  POPC      H18R           20.4714871497       13.5542649098       -0.9112410341  MEMB      68              0.0000000000
      9068        68  POPC      H18S           21.0441532108       14.2233964748        0.6321266788  MEMB      68              0.0000000000
      9069        68  POPC      H18T           21.3862471101       15.1691234493       -0.8765366984  MEMB      68              0.0000000000
      9070        68  POPC      C33            17.0623145510       16.7286458521      -10.7483183046  MEMB      68              0.0000000000
      9071        68  POPC      H3X            16.7114068073       17.7181707075      -10.3849648916  MEMB      68              0.0000000000
      9072        68  POPC      H3Y            17.9332542207       16.9077108536      -11.4144419104  MEMB      68              0.0000000000
      9073        68  POPC      C34            17.3115770451       15.9729946313       -9.3942363231  MEMB      68              0.0000000000
      9074        68  POPC      H4X            16.3841968420       15.9451475131       -8.7830802225  MEMB      68              0.0000000000
      9075        68  POPC      H4Y            18.0582790794       16.5462460498       -8.8042025488  MEMB      68              0.0000000000
      9076        68  POPC      C35            18.0138530390       14.5841610065       -9.4805859999  MEMB      68              0.0000000000
      9077        68  POPC      H5X            18.9138488404       14.6149222722      -10.1312650385  MEMB      68              0.0000000000
      9078        68  POPC      H5Y            17.2365224427       14.0174762646      -10.0364156861  MEMB      68              0.0000000000
      9079        68  POPC      C36            18.0867493299       13.8193339470       -8.1923628470  MEMB      68              0.0000000000
      9080        68  POPC      H6X            18.6804272394       12.9120144564       -8.4345169790  MEMB      68              0.0000000000
      9081        68  POPC      H6Y            17.0996676434       13.5073958852       -7.7890206351  MEMB      68              0.0000000000
      9082        68  POPC      C37            18.5551440725       14.6738242476       -7.0041137410  MEMB      68              0.0000000000
      9083        68  POPC      H7X            17.9102704733       15.5781802307       -6.9796326944  MEMB      68              0.0000000000
      9084        68  POPC      H7Y            19.6179479805       14.9372089969       -7.1922551665  MEMB      68              0.0000000000
      9085        68  POPC      C38            18.5427791972       13.9850002624       -5.5909682743  MEMB      68              0.0000000000
      9086        68  POPC      H8X            18.9900397863       14.6963043788       -4.8641085217  MEMB      68              0.0000000000
      9087        68  POPC      H8Y            19.2681130888       13.1509693411       -5.7032360352  MEMB      68              0.0000000000
      9088        68  POPC      C39            17.1260667777       13.4543582069       -4.9995363714  MEMB      68              0.0000000000
      9089        68  POPC      H9X            17.0866460313       12.3459716348       -4.9343759533  MEMB      68              0.0000000000
      9090        68  POPC      H9Y            16.3476775408       13.7762229344       -5.7239910152  MEMB      68              0.0000000000
      9091        68  POPC      C310           16.9257737866       14.1964358355       -3.6950511647  MEMB      68              0.0000000000
      9092        68  POPC      H10X           16.9459959380       15.3045125957       -3.7730125065  MEMB      68              0.0000000000
      9093        68  POPC      H10Y           17.7353382560       13.7785031155       -3.0592379013  MEMB      68              0.0000000000
      9094        68  POPC      C311           15.5746627680       13.7717499093       -3.0433379678  MEMB      68              0.0000000000
      9095        68  POPC      H11X           15.5957427086       12.7909482496       -2.5218917985  MEMB      68              0.0000000000
      9096        68  POPC      H11Y           14.8610433435       13.7517741677       -3.8946129806  MEMB      68              0.0000000000
      9097        68  POPC      C312           15.1113893327       14.7953324248       -1.9693645148  MEMB      68              0.0000000000
      9098        68  POPC      H12X           15.2046789341       15.7671513098       -2.4996341781  MEMB      68              0.0000000000
      9099        68  POPC      H12Y           15.7164083403       14.6737856512       -1.0455135765  MEMB      68              0.0000000000
      9100        68  POPC      C313           13.6507479560       14.5650113450       -1.4630531666  MEMB      68              0.0000000000
      9101        68  POPC      H13X           13.5450101525       13.6222782337       -0.8847841504  MEMB      68              0.0000000000
      9102        68  POPC      H13Y           13.0142894293       14.4181156642       -2.3617526574  MEMB      68              0.0000000000
      9103        68  POPC      C314           13.0382739567       15.7602770574       -0.5525351350  MEMB      68              0.0000000000
      9104        68  POPC      H14X           11.9392615528       15.5976650379       -0.5595421601  MEMB      68              0.0000000000
      9105        68  POPC      H14Y           13.3546466818       16.7498180938       -0.9462833431  MEMB      68              0.0000000000
      9106        68  POPC      C315           13.6552646564       15.7890306845        0.8087408816  MEMB      68              0.0000000000
      9107        68  POPC      H15X           13.1688974622       16.5934589563        1.4009089501  MEMB      68              0.0000000000
      9108        68  POPC      H15Y           14.7285150374       16.0758275660        0.8229672684  MEMB      68              0.0000000000
      9109        68  POPC      C316           13.6548303942       14.4921363391        1.6250543542  MEMB      68              0.0000000000
      9110        68  POPC      H16X           14.2302434209       14.4206141927        2.5727383885  MEMB      68              0.0000000000
      9111        68  POPC      H16Y           13.9020915596       13.5320969364        1.1235493043  MEMB      68              0.0000000000
      9112        68  POPC      H16Z           12.6205032598       14.3908260181        2.0177677017  MEMB      68              0.0000000000
      9113        69  POPC      N              11.2430420300       19.2856934027      -19.0285675500  MEMB      69              0.0000000000
      9114        69  POPC      C12            12.2109107165       20.4876850897      -18.8523753247  MEMB      69              0.0000000000
      9115        69  POPC      H12A           13.2510202909       20.1992148679      -18.8155348832  MEMB      69              0.0000000000
      9116        69  POPC      H12B           12.0395013783       20.6878007791      -17.8050108031  MEMB      69              0.0000000000
      9117        69  POPC      C13            11.6929734764       18.5956984866      -20.2922186598  MEMB      69              0.0000000000
      9118        69  POPC      H13A           12.7342202201       18.3562399721      -20.1345330799  MEMB      69              0.0000000000
      9119        69  POPC      H13B           11.1908215353       17.6481380310      -20.4201750793  MEMB      69              0.0000000000
      9120        69  POPC      H13C           11.4657033978       19.2650040957      -21.1087835668  MEMB      69              0.0000000000
      9121        69  POPC      C14            11.4576737178       18.3557466619      -17.8182108563  MEMB      69              0.0000000000
      9122        69  POPC      H14A           10.9857969616       17.4184766753      -18.0736662524  MEMB      69              0.0000000000
      9123        69  POPC      H14B           12.4835691177       18.0202175015      -17.8550763501  MEMB      69              0.0000000000
      9124        69  POPC      H14C           11.1310077655       18.8638178580      -16.9229158527  MEMB      69              0.0000000000
      9125        69  POPC      C15             9.8406748729       19.6900938544      -19.0789331868  MEMB      69              0.0000000000
      9126        69  POPC      H15A            9.6375394443       20.3454926220      -18.2449136760  MEMB      69              0.0000000000
      9127        69  POPC      H15B            9.1744991800       18.8417770283      -19.1334149556  MEMB      69              0.0000000000
      9128        69  POPC      H15C            9.6893216194       20.3241782181      -19.9399960252  MEMB      69              0.0000000000
      9129        69  POPC      C11            12.0187558265       21.7671663749      -19.7501125734  MEMB      69              0.0000000000
      9130        69  POPC      H11A           12.1076592551       21.5748639575      -20.8407256136  MEMB      69              0.0000000000
      9131        69  POPC      H11B           12.9172854957       22.4082039384      -19.6234780557  MEMB      69              0.0000000000
      9132        69  POPC      P              10.8609448325       23.9001358184      -18.8931656503  MEMB      69              0.0000000000
      9133        69  POPC      O13             9.5128209020       24.5435434797      -18.8997122454  MEMB      69              0.0000000000
      9134        69  POPC      O14            11.8898794470       24.7400786711      -19.5714065338  MEMB      69              0.0000000000
      9135        69  POPC      O12            10.7873919882       22.3877701728      -19.4452347216  MEMB      69              0.0000000000
      9136        69  POPC      O11            11.3476293118       23.7362142159      -17.3700626972  MEMB      69              0.0000000000
      9137        69  POPC      C1             10.5173089145       23.0969087752      -16.3913672904  MEMB      69              0.0000000000
      9138        69  POPC      HA             11.1406492375       22.3014373723      -15.9298554258  MEMB      69              0.0000000000
      9139        69  POPC      HB              9.6386807161       22.6345248839      -16.8898996076  MEMB      69              0.0000000000
      9140        69  POPC      C2              9.9453426983       24.0560131425      -15.3767533268  MEMB      69              0.0000000000
      9141        69  POPC      HS              9.1117854636       24.5283232525      -15.9392714653  MEMB      69              0.0000000000
      9142        69  POPC      O21            11.0181980747       24.9361090194      -14.9922839420  MEMB      69              0.0000000000
      9143        69  POPC      C21            10.8996199122       26.1925580599      -15.2886099362  MEMB      69              0.0000000000
      9144        69  POPC      O22             9.8723791575       26.7467179692      -15.6976175587  MEMB      69              0.0000000000
      9145        69  POPC      C22            12.2266512384       26.9142776422      -15.0009873352  MEMB      69              0.0000000000
      9146        69  POPC      H2R            12.1346347892       27.5254109748      -14.0777482383  MEMB      69              0.0000000000
      9147        69  POPC      H2S            12.4125515084       27.6175191215      -15.8407567108  MEMB      69              0.0000000000
      9148        69  POPC      C3              9.2770025325       23.4241361669      -14.1246709388  MEMB      69              0.0000000000
      9149        69  POPC      HX              8.4559587448       22.7377069563      -14.4230382859  MEMB      69              0.0000000000
      9150        69  POPC      HY              8.8414802192       24.1672967883      -13.4229919274  MEMB      69              0.0000000000
      9151        69  POPC      O31            10.2798145799       22.5630505306      -13.4622782744  MEMB      69              0.0000000000
      9152        69  POPC      C31            10.7033236717       22.9558532226      -12.2310746664  MEMB      69              0.0000000000
      9153        69  POPC      O32            10.6043229462       24.0881368030      -11.8166158060  MEMB      69              0.0000000000
      9154        69  POPC      C32            11.2741103563       21.6773757682      -11.5696047858  MEMB      69              0.0000000000
      9155        69  POPC      H2X            12.1295166598       21.2590615025      -12.1419806875  MEMB      69              0.0000000000
      9156        69  POPC      H2Y            10.4811290407       20.9079250073      -11.4536429171  MEMB      69              0.0000000000
      9157        69  POPC      C23            13.3328258434       25.9185096652      -14.7233509716  MEMB      69              0.0000000000
      9158        69  POPC      H3R            14.3390614030       26.3720162752      -14.8504032144  MEMB      69              0.0000000000
      9159        69  POPC      H3S            13.3127431583       25.0639091781      -15.4329820002  MEMB      69              0.0000000000
      9160        69  POPC      C24            13.4156911173       25.4255369308      -13.2973360374  MEMB      69              0.0000000000
      9161        69  POPC      H4R            12.7944859486       24.5167906764      -13.1469852331  MEMB      69              0.0000000000
      9162        69  POPC      H4S            12.9883075734       26.1549331344      -12.5764716316  MEMB      69              0.0000000000
      9163        69  POPC      C25            14.8245103144       25.0527341395      -12.8113084216  MEMB      69              0.0000000000
      9164        69  POPC      H5R            14.4705130366       24.5003754811      -11.9146999866  MEMB      69              0.0000000000
      9165        69  POPC      H5S            15.3030284833       25.9808874383      -12.4320026998  MEMB      69              0.0000000000
      9166        69  POPC      C26            15.7012917630       24.0947802633      -13.6345074397  MEMB      69              0.0000000000
      9167        69  POPC      H6R            16.6270052826       23.8862304736      -13.0566815140  MEMB      69              0.0000000000
      9168        69  POPC      H6S            16.0832943442       24.5805006464      -14.5578011043  MEMB      69              0.0000000000
      9169        69  POPC      C27            15.1532989539       22.6622605779      -14.0625129198  MEMB      69              0.0000000000
      9170        69  POPC      H7R            15.9357744707       22.2603520060      -14.7411309989  MEMB      69              0.0000000000
      9171        69  POPC      H7S            14.2568022208       22.8648893299      -14.6866574092  MEMB      69              0.0000000000
      9172        69  POPC      C28            14.9313444863       21.6810447614      -12.9211130855  MEMB      69              0.0000000000
      9173        69  POPC      H8R            14.4977064894       20.7749511969      -13.3957428587  MEMB      69              0.0000000000
      9174        69  POPC      H8S            14.1237402051       22.0256766543      -12.2404331941  MEMB      69              0.0000000000
      9175        69  POPC      C29            16.1526075259       21.1836631963      -12.2208842563  MEMB      69              0.0000000000
      9176        69  POPC      H91            16.9792449298       20.7396717166      -12.7949418151  MEMB      69              0.0000000000
      9177        69  POPC      C210           16.4506076133       21.3574222315      -10.9277701109  MEMB      69              0.0000000000
      9178        69  POPC      H101           17.4150173272       21.0420498312      -10.5029712860  MEMB      69              0.0000000000
      9179        69  POPC      C211           15.5561125852       22.0521252439       -9.9021845543  MEMB      69              0.0000000000
      9180        69  POPC      H11R           15.3492651664       21.3049400322       -9.1064143997  MEMB      69              0.0000000000
      9181        69  POPC      H11S           14.7424418075       22.5993956045      -10.4244450236  MEMB      69              0.0000000000
      9182        69  POPC      C212           16.3229963353       23.1755365655       -9.1401323038  MEMB      69              0.0000000000
      9183        69  POPC      H12R           15.9890527276       24.1199261262       -9.6206854455  MEMB      69              0.0000000000
      9184        69  POPC      H12S           17.4305457859       23.0979822859       -9.0996291930  MEMB      69              0.0000000000
      9185        69  POPC      C213           15.9010956815       23.2686090172       -7.6154602475  MEMB      69              0.0000000000
      9186        69  POPC      H13R           16.3759434783       24.2011978273       -7.2424739892  MEMB      69              0.0000000000
      9187        69  POPC      H13S           16.3547718776       22.3197064641       -7.2575729220  MEMB      69              0.0000000000
      9188        69  POPC      C214           14.3800239890       23.2378139477       -7.1695586207  MEMB      69              0.0000000000
      9189        69  POPC      H14R           14.0121786436       22.3301887019       -7.6941796814  MEMB      69              0.0000000000
      9190        69  POPC      H14S           13.8727016709       24.1439936735       -7.5642525548  MEMB      69              0.0000000000
      9191        69  POPC      C215           14.0757682789       23.1553941256       -5.6974634466  MEMB      69              0.0000000000
      9192        69  POPC      H15R           14.6617021713       23.8769433086       -5.0888828612  MEMB      69              0.0000000000
      9193        69  POPC      H15S           14.3255912283       22.1134042373       -5.4039214112  MEMB      69              0.0000000000
      9194        69  POPC      C216           12.6596225223       23.5390375537       -5.2704298560  MEMB      69              0.0000000000
      9195        69  POPC      H16R           11.9438093629       22.8495334519       -5.7669343579  MEMB      69              0.0000000000
      9196        69  POPC      H16S           12.3772242298       24.5353598337       -5.6728153654  MEMB      69              0.0000000000
      9197        69  POPC      C217           12.2158924250       23.3812174119       -3.7802385348  MEMB      69              0.0000000000
      9198        69  POPC      H17R           11.2452735137       23.9209047520       -3.7492942558  MEMB      69              0.0000000000
      9199        69  POPC      H17S           12.9558150925       24.0121837109       -3.2429139580  MEMB      69              0.0000000000
      9200        69  POPC      C218           12.2125185773       22.0113298645       -3.1257929638  MEMB      69              0.0000000000
      9201        69  POPC      H18R           11.8423844166       22.0022216128       -2.0783005477  MEMB      69              0.0000000000
      9202        69  POPC      H18S           13.2851123529       21.7284132805       -3.1876132342  MEMB      69              0.0000000000
      9203        69  POPC      H18T           11.6030388061       21.3464549896       -3.7744811118  MEMB      69              0.0000000000
      9204        69  POPC      C33            11.9334205202       21.9191727330      -10.2253402480  MEMB      69              0.0000000000
      9205        69  POPC      H3X            12.4960044052       22.8767909124      -10.1972745461  MEMB      69              0.0000000000
      9206        69  POPC      H3Y            12.6553230218       21.1580612823       -9.8594343047  MEMB      69              0.0000000000
      9207        69  POPC      C34            10.9113045927       21.8006060013       -8.9716282298  MEMB      69              0.0000000000
      9208        69  POPC      H4X            11.5291124195       21.5852862355       -8.0737019096  MEMB      69              0.0000000000
      9209        69  POPC      H4Y            10.2902515805       20.8845704318       -9.0690596980  MEMB      69              0.0000000000
      9210        69  POPC      C35             9.9488702609       23.0067189140       -8.6475176022  MEMB      69              0.0000000000
      9211        69  POPC      H5X             9.3082656498       23.1179206023       -9.5483955502  MEMB      69              0.0000000000
      9212        69  POPC      H5Y            10.5049262201       23.9647977382       -8.5626197050  MEMB      69              0.0000000000
      9213        69  POPC      C36             9.0530155627       22.6650927525       -7.5550765176  MEMB      69              0.0000000000
      9214        69  POPC      H6X             8.2629367085       23.4193127386       -7.3519781275  MEMB      69              0.0000000000
      9215        69  POPC      H6Y             9.7788040895       22.6078443822       -6.7158650798  MEMB      69              0.0000000000
      9216        69  POPC      C37             8.2808187101       21.3617246844       -7.6922988536  MEMB      69              0.0000000000
      9217        69  POPC      H7X             8.9807214126       20.5145867159       -7.5285479336  MEMB      69              0.0000000000
      9218        69  POPC      H7Y             7.8016449066       21.2429265217       -8.6875880569  MEMB      69              0.0000000000
      9219        69  POPC      C38             7.2059136202       21.2131911006       -6.6146234982  MEMB      69              0.0000000000
      9220        69  POPC      H8X             6.7121026975       20.2431294912       -6.8370003312  MEMB      69              0.0000000000
      9221        69  POPC      H8Y             6.3817601763       21.9522681926       -6.7087353088  MEMB      69              0.0000000000
      9222        69  POPC      C39             7.8234512114       21.1318358211       -5.2397309199  MEMB      69              0.0000000000
      9223        69  POPC      H9X             8.9214438891       20.9678050674       -5.2824742304  MEMB      69              0.0000000000
      9224        69  POPC      H9Y             7.3816822611       20.2867153298       -4.6697031930  MEMB      69              0.0000000000
      9225        69  POPC      C310            7.6024633712       22.4050293311       -4.4290228260  MEMB      69              0.0000000000
      9226        69  POPC      H10X            6.5166331947       22.6362565699       -4.3862719657  MEMB      69              0.0000000000
      9227        69  POPC      H10Y            8.2916414166       23.1738659095       -4.8391995676  MEMB      69              0.0000000000
      9228        69  POPC      C311            8.0155565801       22.2193055738       -2.9057064031  MEMB      69              0.0000000000
      9229        69  POPC      H11X            7.8159194178       23.1942715354       -2.4118363676  MEMB      69              0.0000000000
      9230        69  POPC      H11Y            9.1099706325       22.0793900112       -2.7753129455  MEMB      69              0.0000000000
      9231        69  POPC      C312            7.1250396251       21.2573817342       -2.0596786033  MEMB      69              0.0000000000
      9232        69  POPC      H12X            7.2982556463       20.2507920979       -2.4968230690  MEMB      69              0.0000000000
      9233        69  POPC      H12Y            6.0804257395       21.6138247243       -2.1863752920  MEMB      69              0.0000000000
      9234        69  POPC      C313            7.4374779556       21.3078776986       -0.6165449298  MEMB      69              0.0000000000
      9235        69  POPC      H13X            8.5296429262       21.1457249593       -0.4932423183  MEMB      69              0.0000000000
      9236        69  POPC      H13Y            6.9597877632       20.4148423581       -0.1597931053  MEMB      69              0.0000000000
      9237        69  POPC      C314            6.8412883957       22.4584696020        0.1779632991  MEMB      69              0.0000000000
      9238        69  POPC      H14X            5.7466038981       22.5201952050       -0.0014166500  MEMB      69              0.0000000000
      9239        69  POPC      H14Y            7.3192449675       23.4206156990       -0.1051506740  MEMB      69              0.0000000000
      9240        69  POPC      C315            7.0792667506       22.2557766000        1.7191932905  MEMB      69              0.0000000000
      9241        69  POPC      H15X            6.4425911163       21.3585985273        1.8742328108  MEMB      69              0.0000000000
      9242        69  POPC      H15Y            6.6851069099       23.1378397913        2.2677574923  MEMB      69              0.0000000000
      9243        69  POPC      C316            8.5129447108       22.0295123959        2.0637034941  MEMB      69              0.0000000000
      9244        69  POPC      H16X            9.0585473908       22.9582998573        1.7916884708  MEMB      69              0.0000000000
      9245        69  POPC      H16Y            9.0691496623       21.1422675063        1.6925501365  MEMB      69              0.0000000000
      9246        69  POPC      H16Z            8.5716100061       21.9448691062        3.1699205842  MEMB      69              0.0000000000
      9247        70  POPC      N             -24.4697782086       -3.6769838843      -19.0045480399  MEMB      70              0.0000000000
      9248        70  POPC      C12           -24.3214453488       -4.9150864714      -18.2166788949  MEMB      70              0.0000000000
      9249        70  POPC      H12A          -23.9780530721       -4.6012457750      -17.2420068496  MEMB      70              0.0000000000
      9250        70  POPC      H12B          -23.6865762500       -5.5687616021      -18.7963772252  MEMB      70              0.0000000000
      9251        70  POPC      C13           -25.4498966962       -2.6785816379      -18.4203966280  MEMB      70              0.0000000000
      9252        70  POPC      H13A          -26.3466461435       -3.2679541219      -18.2984115582  MEMB      70              0.0000000000
      9253        70  POPC      H13B          -25.0541563747       -2.4393659904      -17.4444019982  MEMB      70              0.0000000000
      9254        70  POPC      H13C          -25.4597516336       -1.7539520682      -18.9783959756  MEMB      70              0.0000000000
      9255        70  POPC      C14           -23.1017193267       -3.1030038014      -19.1447757259  MEMB      70              0.0000000000
      9256        70  POPC      H14A          -22.3916229103       -3.7784493827      -19.5985777353  MEMB      70              0.0000000000
      9257        70  POPC      H14B          -23.1436493382       -2.2549955676      -19.8122514172  MEMB      70              0.0000000000
      9258        70  POPC      H14C          -22.8069701840       -2.8240089755      -18.1439337404  MEMB      70              0.0000000000
      9259        70  POPC      C15           -25.0552053012       -4.0553352273      -20.4536590677  MEMB      70              0.0000000000
      9260        70  POPC      H15A          -24.5077801031       -4.8418487574      -20.9517776389  MEMB      70              0.0000000000
      9261        70  POPC      H15B          -24.8733727286       -3.2674217835      -21.1695705177  MEMB      70              0.0000000000
      9262        70  POPC      H15C          -26.1133187898       -4.2688509760      -20.4189202899  MEMB      70              0.0000000000
      9263        70  POPC      C11           -25.5208290376       -5.7883025907      -17.8902514881  MEMB      70              0.0000000000
      9264        70  POPC      H11A          -26.3348169756       -5.2136318281      -17.3988268715  MEMB      70              0.0000000000
      9265        70  POPC      H11B          -25.1905290846       -6.5872995826      -17.1925217448  MEMB      70              0.0000000000
      9266        70  POPC      P             -27.5754339686       -6.6825697679      -19.2512081999  MEMB      70              0.0000000000
      9267        70  POPC      O13           -27.7814810431       -7.8402427250      -20.1498714047  MEMB      70              0.0000000000
      9268        70  POPC      O14           -28.3516710434       -5.4448813379      -19.5468546747  MEMB      70              0.0000000000
      9269        70  POPC      O12           -26.0265073796       -6.3338621807      -19.1321594010  MEMB      70              0.0000000000
      9270        70  POPC      O11           -27.9908316459       -7.0659640307      -17.7895965063  MEMB      70              0.0000000000
      9271        70  POPC      C1            -27.5474394503       -8.3583236490      -17.3432539087  MEMB      70              0.0000000000
      9272        70  POPC      HA            -26.5584681706       -8.6377449544      -17.7653684300  MEMB      70              0.0000000000
      9273        70  POPC      HB            -28.2220799822       -9.0885798116      -17.8391441719  MEMB      70              0.0000000000
      9274        70  POPC      C2            -27.5670704465       -8.4996811857      -15.7499556881  MEMB      70              0.0000000000
      9275        70  POPC      HS            -28.5580794429       -8.9494989619      -15.5266044629  MEMB      70              0.0000000000
      9276        70  POPC      O21           -27.4221994242       -7.1786244117      -15.0462746797  MEMB      70              0.0000000000
      9277        70  POPC      C21           -28.6109416571       -6.6314909539      -14.7070355439  MEMB      70              0.0000000000
      9278        70  POPC      O22           -29.6792518113       -7.1769404912      -14.7222595109  MEMB      70              0.0000000000
      9279        70  POPC      C22           -28.3947159726       -5.0774838216      -14.4019659919  MEMB      70              0.0000000000
      9280        70  POPC      H2R           -28.9924703127       -4.8305909183      -13.4986086409  MEMB      70              0.0000000000
      9281        70  POPC      H2S           -28.9570389431       -4.4484357534      -15.1247472590  MEMB      70              0.0000000000
      9282        70  POPC      C3            -26.4419071709       -9.4526623523      -15.1923943504  MEMB      70              0.0000000000
      9283        70  POPC      HX            -25.5414983945       -9.3089713126      -15.8271684365  MEMB      70              0.0000000000
      9284        70  POPC      HY            -26.7152406823      -10.5265585865      -15.2721248842  MEMB      70              0.0000000000
      9285        70  POPC      O31           -26.0596421720       -9.1227429329      -13.8248715370  MEMB      70              0.0000000000
      9286        70  POPC      C31           -26.7862057742       -9.6178362536      -12.8028008923  MEMB      70              0.0000000000
      9287        70  POPC      O32           -27.7191326786      -10.3956479143      -12.9831749715  MEMB      70              0.0000000000
      9288        70  POPC      C32           -26.0539619162       -9.2571622710      -11.5086827153  MEMB      70              0.0000000000
      9289        70  POPC      H2X           -26.0224370887       -8.1557978127      -11.3661221489  MEMB      70              0.0000000000
      9290        70  POPC      H2Y           -25.0126894511       -9.6416572938      -11.5559720228  MEMB      70              0.0000000000
      9291        70  POPC      C23           -26.8962587231       -4.6643786668      -14.1973726890  MEMB      70              0.0000000000
      9292        70  POPC      H3R           -26.4582442972       -4.4666360423      -15.1990523701  MEMB      70              0.0000000000
      9293        70  POPC      H3S           -26.3056339876       -5.5155506666      -13.7961376483  MEMB      70              0.0000000000
      9294        70  POPC      C24           -26.6609160474       -3.5562823789      -13.1809678640  MEMB      70              0.0000000000
      9295        70  POPC      H4R           -27.4883625042       -2.8475454804      -13.3985583569  MEMB      70              0.0000000000
      9296        70  POPC      H4S           -25.7046844648       -2.9975360588      -13.2689723926  MEMB      70              0.0000000000
      9297        70  POPC      C25           -26.9530533896       -4.0366125974      -11.6619942895  MEMB      70              0.0000000000
      9298        70  POPC      H5R           -27.6829588727       -4.8732603503      -11.6222536825  MEMB      70              0.0000000000
      9299        70  POPC      H5S           -27.4853231865       -3.3237370230      -10.9965484759  MEMB      70              0.0000000000
      9300        70  POPC      C26           -25.7830016848       -4.6922701183      -10.8477614964  MEMB      70              0.0000000000
      9301        70  POPC      H6R           -25.5142207258       -5.6377519634      -11.3655860835  MEMB      70              0.0000000000
      9302        70  POPC      H6S           -26.0861123528       -4.8816067733       -9.7958130762  MEMB      70              0.0000000000
      9303        70  POPC      C27           -24.5200179294       -3.7833789001      -10.9593178546  MEMB      70              0.0000000000
      9304        70  POPC      H7R           -24.7681072174       -2.7648746495      -10.5913209909  MEMB      70              0.0000000000
      9305        70  POPC      H7S           -24.2359580408       -3.6333943615      -12.0228665044  MEMB      70              0.0000000000
      9306        70  POPC      C28           -23.3901151077       -4.1621303044       -9.9688785522  MEMB      70              0.0000000000
      9307        70  POPC      H8R           -23.8203299099       -4.4798902057       -8.9950898261  MEMB      70              0.0000000000
      9308        70  POPC      H8S           -22.7960143541       -3.2584174069       -9.7145783462  MEMB      70              0.0000000000
      9309        70  POPC      C29           -22.4494488319       -5.1773314474      -10.5761726556  MEMB      70              0.0000000000
      9310        70  POPC      H91           -21.7574091901       -4.7826894194      -11.3346833075  MEMB      70              0.0000000000
      9311        70  POPC      C210          -22.4481960439       -6.4980290507      -10.2768039983  MEMB      70              0.0000000000
      9312        70  POPC      H101          -21.5150838618       -7.0466776100      -10.4724726171  MEMB      70              0.0000000000
      9313        70  POPC      C211          -23.3974254868       -7.1633604335       -9.3438607525  MEMB      70              0.0000000000
      9314        70  POPC      H11R          -23.6203875059       -8.1899136111       -9.7055202618  MEMB      70              0.0000000000
      9315        70  POPC      H11S          -24.3477711385       -6.5878928574       -9.3450069636  MEMB      70              0.0000000000
      9316        70  POPC      C212          -23.1534322655       -7.1669229000       -7.7638931376  MEMB      70              0.0000000000
      9317        70  POPC      H12R          -22.9268907782       -6.1342141673       -7.4225536859  MEMB      70              0.0000000000
      9318        70  POPC      H12S          -22.2244727996       -7.7448169708       -7.5705195573  MEMB      70              0.0000000000
      9319        70  POPC      C213          -24.2860947654       -7.9439365531       -6.9997561233  MEMB      70              0.0000000000
      9320        70  POPC      H13R          -24.1641049028       -8.9593897249       -7.4336853043  MEMB      70              0.0000000000
      9321        70  POPC      H13S          -25.2552334828       -7.5028213939       -7.3167867316  MEMB      70              0.0000000000
      9322        70  POPC      C214          -24.2189439104       -7.8272548523       -5.4611525397  MEMB      70              0.0000000000
      9323        70  POPC      H14R          -24.0935919090       -6.7561721631       -5.1939642614  MEMB      70              0.0000000000
      9324        70  POPC      H14S          -23.2916975032       -8.3330263603       -5.1165797276  MEMB      70              0.0000000000
      9325        70  POPC      C215          -25.2702558206       -8.6069498622       -4.7472632303  MEMB      70              0.0000000000
      9326        70  POPC      H15R          -25.3353553088       -9.6860650882       -5.0033751079  MEMB      70              0.0000000000
      9327        70  POPC      H15S          -26.2581433530       -8.2627762946       -5.1213542829  MEMB      70              0.0000000000
      9328        70  POPC      C216          -25.1233584183       -8.2801296816       -3.3022216930  MEMB      70              0.0000000000
      9329        70  POPC      H16R          -25.2735375385       -7.2042196022       -3.0694457918  MEMB      70              0.0000000000
      9330        70  POPC      H16S          -24.1022081383       -8.5516498940       -2.9589283522  MEMB      70              0.0000000000
      9331        70  POPC      C217          -26.1223013737       -9.1104175534       -2.4629007040  MEMB      70              0.0000000000
      9332        70  POPC      H17R          -25.9516213220      -10.2067404529       -2.5200462961  MEMB      70              0.0000000000
      9333        70  POPC      H17S          -27.1405483852       -8.9742339781       -2.8859226258  MEMB      70              0.0000000000
      9334        70  POPC      C218          -26.2232070546       -8.8022171732       -0.9731884702  MEMB      70              0.0000000000
      9335        70  POPC      H18R          -25.2116462311       -8.8014643312       -0.5137707213  MEMB      70              0.0000000000
      9336        70  POPC      H18S          -26.8692296754       -9.5689376581       -0.4945303912  MEMB      70              0.0000000000
      9337        70  POPC      H18T          -26.7082060797       -7.8221169466       -0.7769733041  MEMB      70              0.0000000000
      9338        70  POPC      C33           -26.6509094405       -9.9950239809      -10.2388309962  MEMB      70              0.0000000000
      9339        70  POPC      H3X           -26.1506174643       -9.4028005911       -9.4430291833  MEMB      70              0.0000000000
      9340        70  POPC      H3Y           -26.4598364159      -11.0888215795      -10.2011606558  MEMB      70              0.0000000000
      9341        70  POPC      C34           -28.1473944506       -9.7965831760       -9.9456663682  MEMB      70              0.0000000000
      9342        70  POPC      H4X           -28.2034069363      -10.2438474669       -8.9302168701  MEMB      70              0.0000000000
      9343        70  POPC      H4Y           -28.5998232540      -10.4318181771      -10.7369351979  MEMB      70              0.0000000000
      9344        70  POPC      C35           -28.5011136943       -8.3562766480      -10.0348925099  MEMB      70              0.0000000000
      9345        70  POPC      H5X           -28.8189274839       -8.1067360622      -11.0698055232  MEMB      70              0.0000000000
      9346        70  POPC      H5Y           -27.6890148223       -7.6458763575       -9.7700380020  MEMB      70              0.0000000000
      9347        70  POPC      C36           -29.7403803192       -8.0800529258       -9.0878203018  MEMB      70              0.0000000000
      9348        70  POPC      H6X           -29.3310388222       -8.4681055372       -8.1306496044  MEMB      70              0.0000000000
      9349        70  POPC      H6Y           -30.5862046823       -8.7148887058       -9.4282408091  MEMB      70              0.0000000000
      9350        70  POPC      C37           -30.2034628164       -6.6145666012       -8.9867898799  MEMB      70              0.0000000000
      9351        70  POPC      H7X           -30.9905460397       -6.5966688991       -8.2028889497  MEMB      70              0.0000000000
      9352        70  POPC      H7Y           -30.5466585685       -6.2019102880       -9.9595446741  MEMB      70              0.0000000000
      9353        70  POPC      C38           -28.9387299582       -5.7520140987       -8.6040101002  MEMB      70              0.0000000000
      9354        70  POPC      H8X           -28.3084785454       -5.6329425458       -9.5111634232  MEMB      70              0.0000000000
      9355        70  POPC      H8Y           -28.4746613336       -6.2676466406       -7.7362064251  MEMB      70              0.0000000000
      9356        70  POPC      C39           -29.3583671511       -4.3758781312       -8.0615119304  MEMB      70              0.0000000000
      9357        70  POPC      H9X           -29.9480909312       -4.5790171302       -7.1421197081  MEMB      70              0.0000000000
      9358        70  POPC      H9Y           -30.0209005362       -3.8706792939       -8.7964571503  MEMB      70              0.0000000000
      9359        70  POPC      C310          -28.2551309455       -3.4785476624       -7.7180919374  MEMB      70              0.0000000000
      9360        70  POPC      H10X          -28.6285675550       -2.4611815944       -7.4734849543  MEMB      70              0.0000000000
      9361        70  POPC      H10Y          -27.7189187861       -3.2094970385       -8.6531913470  MEMB      70              0.0000000000
      9362        70  POPC      C311          -27.2180849720       -4.0839953316       -6.7191217509  MEMB      70              0.0000000000
      9363        70  POPC      H11X          -26.3900828985       -3.3440779211       -6.6836850879  MEMB      70              0.0000000000
      9364        70  POPC      H11Y          -26.7565234096       -5.0279494721       -7.0799989833  MEMB      70              0.0000000000
      9365        70  POPC      C312          -27.9362840345       -4.2287380251       -5.4137100288  MEMB      70              0.0000000000
      9366        70  POPC      H12X          -28.7031115015       -5.0316611896       -5.3735765677  MEMB      70              0.0000000000
      9367        70  POPC      H12Y          -28.4220978793       -3.3275034065       -4.9823374595  MEMB      70              0.0000000000
      9368        70  POPC      C313          -26.9895209104       -4.6061886730       -4.1662236308  MEMB      70              0.0000000000
      9369        70  POPC      H13X          -26.6131401520       -5.6412174935       -4.3124221270  MEMB      70              0.0000000000
      9370        70  POPC      H13Y          -27.5302336252       -4.4472224071       -3.2087898756  MEMB      70              0.0000000000
      9371        70  POPC      C314          -25.7451450456       -3.7821406143       -3.9014755117  MEMB      70              0.0000000000
      9372        70  POPC      H14X          -25.9599850474       -2.7227784790       -3.6447334563  MEMB      70              0.0000000000
      9373        70  POPC      H14Y          -24.9676536999       -3.6681348738       -4.6868613812  MEMB      70              0.0000000000
      9374        70  POPC      C315          -24.8641219852       -4.3060455064       -2.7711919341  MEMB      70              0.0000000000
      9375        70  POPC      H15X          -24.1835715777       -3.4696637123       -2.5035388535  MEMB      70              0.0000000000
      9376        70  POPC      H15Y          -24.1959176430       -5.1481653332       -3.0516517945  MEMB      70              0.0000000000
      9377        70  POPC      C316          -25.5326806164       -4.7414319642       -1.4151777950  MEMB      70              0.0000000000
      9378        70  POPC      H16X          -24.8121987900       -4.6902731803       -0.5710157113  MEMB      70              0.0000000000
      9379        70  POPC      H16Y          -25.9303756659       -5.7761322865       -1.4897068102  MEMB      70              0.0000000000
      9380        70  POPC      H16Z          -26.3861141804       -4.0391212934       -1.3023399640  MEMB      70              0.0000000000
      9381        71  POPC      N              25.3281085830       -7.9122840374      -20.0900557352  MEMB      71              0.0000000000
      9382        71  POPC      C12            25.7275398093       -7.5387629592      -18.6391220145  MEMB      71              0.0000000000
      9383        71  POPC      H12A           26.5838151370       -6.8847512528      -18.7130232841  MEMB      71              0.0000000000
      9384        71  POPC      H12B           26.1188915859       -8.4298195172      -18.1708676032  MEMB      71              0.0000000000
      9385        71  POPC      C13            25.4267462778       -6.7342752437      -20.9837715674  MEMB      71              0.0000000000
      9386        71  POPC      H13A           25.0864718745       -5.8047477815      -20.5518086161  MEMB      71              0.0000000000
      9387        71  POPC      H13B           26.4518010306       -6.6095735121      -21.3001769226  MEMB      71              0.0000000000
      9388        71  POPC      H13C           24.7905137578       -6.8830436746      -21.8436995897  MEMB      71              0.0000000000
      9389        71  POPC      C14            26.2412041666       -8.9605678659      -20.6206326350  MEMB      71              0.0000000000
      9390        71  POPC      H14A           26.1529401147       -9.8637444270      -20.0350714515  MEMB      71              0.0000000000
      9391        71  POPC      H14B           25.9903367721       -9.1313525994      -21.6571162380  MEMB      71              0.0000000000
      9392        71  POPC      H14C           27.2600112527       -8.6029991606      -20.6446456256  MEMB      71              0.0000000000
      9393        71  POPC      C15            23.9094555261       -8.4651414552      -20.1502866496  MEMB      71              0.0000000000
      9394        71  POPC      H15A           23.3178911014       -7.7420886982      -19.6083954276  MEMB      71              0.0000000000
      9395        71  POPC      H15B           23.8162026695       -9.4361231942      -19.6867155448  MEMB      71              0.0000000000
      9396        71  POPC      H15C           23.5504137465       -8.5949158681      -21.1605576006  MEMB      71              0.0000000000
      9397        71  POPC      C11            24.6885666879       -6.8408765516      -17.6593551540  MEMB      71              0.0000000000
      9398        71  POPC      H11A           25.2931292120       -6.5492894022      -16.7740292949  MEMB      71              0.0000000000
      9399        71  POPC      H11B           23.9223896942       -7.5565350907      -17.2917593811  MEMB      71              0.0000000000
      9400        71  POPC      P              24.4313202489       -4.2662095862      -18.2315184777  MEMB      71              0.0000000000
      9401        71  POPC      O13            23.5293003933       -3.4722425155      -19.1301754907  MEMB      71              0.0000000000
      9402        71  POPC      O14            25.8719005240       -4.1659477836      -18.4081159480  MEMB      71              0.0000000000
      9403        71  POPC      O12            23.9892028587       -5.8396711772      -18.3103997898  MEMB      71              0.0000000000
      9404        71  POPC      O11            24.0552343950       -3.8796792701      -16.7765665363  MEMB      71              0.0000000000
      9405        71  POPC      C1             22.7312967678       -3.9832895845      -16.3092294952  MEMB      71              0.0000000000
      9406        71  POPC      HA             22.1298215170       -4.8829379440      -16.5605880636  MEMB      71              0.0000000000
      9407        71  POPC      HB             22.1699750628       -3.0821738888      -16.6366884332  MEMB      71              0.0000000000
      9408        71  POPC      C2             22.7037128756       -3.9609805195      -14.7066679347  MEMB      71              0.0000000000
      9409        71  POPC      HS             21.6321067173       -3.7848694955      -14.4722193373  MEMB      71              0.0000000000
      9410        71  POPC      O21            23.5800296830       -2.8831012668      -14.2345747106  MEMB      71              0.0000000000
      9411        71  POPC      C21            22.9559349082       -1.7089476366      -14.2540263827  MEMB      71              0.0000000000
      9412        71  POPC      O22            21.8259832964       -1.4558087220      -14.6892867659  MEMB      71              0.0000000000
      9413        71  POPC      C22            24.0376009930       -0.7315405865      -13.6619070460  MEMB      71              0.0000000000
      9414        71  POPC      H2R            24.3034900336       -0.0330412339      -14.4839306518  MEMB      71              0.0000000000
      9415        71  POPC      H2S            24.9317812054       -1.3284882676      -13.3818783124  MEMB      71              0.0000000000
      9416        71  POPC      C3             23.2879761658       -5.3274844615      -14.1421180048  MEMB      71              0.0000000000
      9417        71  POPC      HX             24.0375369573       -5.6609999609      -14.8912822516  MEMB      71              0.0000000000
      9418        71  POPC      HY             22.5123724138       -6.1229420954      -14.1394821351  MEMB      71              0.0000000000
      9419        71  POPC      O31            24.0238731193       -5.3186851765      -12.8906226869  MEMB      71              0.0000000000
      9420        71  POPC      C31            23.3399428083       -5.0084970672      -11.7925796096  MEMB      71              0.0000000000
      9421        71  POPC      O32            22.1939989228       -4.7949491752      -11.6327431213  MEMB      71              0.0000000000
      9422        71  POPC      C32            24.2399416205       -5.1334862358      -10.5294460866  MEMB      71              0.0000000000
      9423        71  POPC      H2X            24.7199581793       -4.1846201831      -10.2076416250  MEMB      71              0.0000000000
      9424        71  POPC      H2Y            25.0757628247       -5.8501635454      -10.6780988236  MEMB      71              0.0000000000
      9425        71  POPC      C23            23.5043750211       -0.1440472791      -12.3323306013  MEMB      71              0.0000000000
      9426        71  POPC      H3R            22.5970959854        0.4751564537      -12.4989215546  MEMB      71              0.0000000000
      9427        71  POPC      H3S            24.2581498857        0.5462343827      -11.8968359326  MEMB      71              0.0000000000
      9428        71  POPC      C24            23.2152018086       -1.1446028615      -11.2203562022  MEMB      71              0.0000000000
      9429        71  POPC      H4R            24.1599704808       -1.7256454625      -11.1561499222  MEMB      71              0.0000000000
      9430        71  POPC      H4S            22.4002379402       -1.8161995286      -11.5654838596  MEMB      71              0.0000000000
      9431        71  POPC      C25            22.9723261450       -0.4068701426       -9.8473729652  MEMB      71              0.0000000000
      9432        71  POPC      H5R            22.4281420971       -1.0773193842       -9.1483147744  MEMB      71              0.0000000000
      9433        71  POPC      H5S            22.3389667235        0.5052870503       -9.8135208645  MEMB      71              0.0000000000
      9434        71  POPC      C26            24.2989965241        0.0001971877       -9.1741648612  MEMB      71              0.0000000000
      9435        71  POPC      H6R            24.4957904955        1.0171741645       -9.5758509497  MEMB      71              0.0000000000
      9436        71  POPC      H6S            25.1582280323       -0.5986812455       -9.5448223535  MEMB      71              0.0000000000
      9437        71  POPC      C27            24.2357241316       -0.0947881712       -7.5878097367  MEMB      71              0.0000000000
      9438        71  POPC      H7R            23.2478194360        0.1845238438       -7.1631335221  MEMB      71              0.0000000000
      9439        71  POPC      H7S            25.0363713381        0.6221667072       -7.3062772014  MEMB      71              0.0000000000
      9440        71  POPC      C28            24.6326360438       -1.4284163178       -6.9667121872  MEMB      71              0.0000000000
      9441        71  POPC      H8R            23.9215490972       -2.2614529667       -7.1530609413  MEMB      71              0.0000000000
      9442        71  POPC      H8S            24.6079317649       -1.2340213376       -5.8731299334  MEMB      71              0.0000000000
      9443        71  POPC      C29            25.9812045866       -1.9036852800       -7.2466848616  MEMB      71              0.0000000000
      9444        71  POPC      H91            26.0246605785       -2.3429484173       -8.2542362035  MEMB      71              0.0000000000
      9445        71  POPC      C210           27.0587839992       -1.7470194523       -6.4398470611  MEMB      71              0.0000000000
      9446        71  POPC      H101           28.0390896824       -2.0428079470       -6.8417302111  MEMB      71              0.0000000000
      9447        71  POPC      C211           27.2418006943       -1.1024629300       -5.1221926649  MEMB      71              0.0000000000
      9448        71  POPC      H11R           26.2683545144       -0.7028824518       -4.7657400305  MEMB      71              0.0000000000
      9449        71  POPC      H11S           28.1749429836       -0.5011885643       -5.1673102125  MEMB      71              0.0000000000
      9450        71  POPC      C212           27.5325358361       -2.0762149843       -3.9246540667  MEMB      71              0.0000000000
      9451        71  POPC      H12R           27.9639443490       -1.5015132252       -3.0773488682  MEMB      71              0.0000000000
      9452        71  POPC      H12S           28.1937250641       -2.8801650751       -4.3130021877  MEMB      71              0.0000000000
      9453        71  POPC      C213           26.1938558714       -2.7084821311       -3.4315544113  MEMB      71              0.0000000000
      9454        71  POPC      H13R           25.8293179596       -3.3410360533       -4.2689963719  MEMB      71              0.0000000000
      9455        71  POPC      H13S           25.4593385154       -1.8805821821       -3.3346678637  MEMB      71              0.0000000000
      9456        71  POPC      C214           26.2904154663       -3.4771902644       -2.1532656628  MEMB      71              0.0000000000
      9457        71  POPC      H14R           25.3734982210       -4.1007307934       -2.0841204824  MEMB      71              0.0000000000
      9458        71  POPC      H14S           26.3361301701       -2.7789084270       -1.2903452864  MEMB      71              0.0000000000
      9459        71  POPC      C215           27.4593442532       -4.5222290543       -2.0490023915  MEMB      71              0.0000000000
      9460        71  POPC      H15R           28.4250560271       -4.0263305583       -1.8127694786  MEMB      71              0.0000000000
      9461        71  POPC      H15S           27.4875698718       -4.9515174977       -3.0733257547  MEMB      71              0.0000000000
      9462        71  POPC      C216           27.1474388860       -5.7471724493       -1.0476731184  MEMB      71              0.0000000000
      9463        71  POPC      H16R           27.4997203501       -6.5800405900       -1.6930787229  MEMB      71              0.0000000000
      9464        71  POPC      H16S           26.0386389090       -5.7863790727       -0.9898238878  MEMB      71              0.0000000000
      9465        71  POPC      C217           27.7973199074       -5.6926327335        0.3557478011  MEMB      71              0.0000000000
      9466        71  POPC      H17R           27.7387268328       -4.6607089711        0.7632032914  MEMB      71              0.0000000000
      9467        71  POPC      H17S           28.8720382848       -5.9738892821        0.3417273828  MEMB      71              0.0000000000
      9468        71  POPC      C218           27.2985325184       -6.5396130354        1.4235849571  MEMB      71              0.0000000000
      9469        71  POPC      H18R           27.1878562263       -7.5492235356        0.9732974755  MEMB      71              0.0000000000
      9470        71  POPC      H18S           26.2898442751       -6.2998993765        1.8228413702  MEMB      71              0.0000000000
      9471        71  POPC      H18T           27.9276549095       -6.5738146851        2.3386572977  MEMB      71              0.0000000000
      9472        71  POPC      C33            23.3451266729       -5.6821303839       -9.3697211144  MEMB      71              0.0000000000
      9473        71  POPC      H3X            22.7115519961       -6.5316251537       -9.7032823081  MEMB      71              0.0000000000
      9474        71  POPC      H3Y            22.7560322995       -4.9018548669       -8.8420292620  MEMB      71              0.0000000000
      9475        71  POPC      C34            24.2703341073       -6.3019395573       -8.2780729684  MEMB      71              0.0000000000
      9476        71  POPC      H4X            24.8471485074       -7.1090250165       -8.7782928837  MEMB      71              0.0000000000
      9477        71  POPC      H4Y            23.5991222819       -6.7487404446       -7.5137663298  MEMB      71              0.0000000000
      9478        71  POPC      C35            25.2362226289       -5.3370552676       -7.5056374213  MEMB      71              0.0000000000
      9479        71  POPC      H5X            24.6697373926       -4.5787215168       -6.9239622197  MEMB      71              0.0000000000
      9480        71  POPC      H5Y            25.7525190277       -4.7119178155       -8.2652176984  MEMB      71              0.0000000000
      9481        71  POPC      C36            26.3142933492       -6.0483373850       -6.5950425567  MEMB      71              0.0000000000
      9482        71  POPC      H6X            27.1874447466       -5.3614065596       -6.6023673510  MEMB      71              0.0000000000
      9483        71  POPC      H6Y            26.7513927769       -6.9849862989       -7.0024173710  MEMB      71              0.0000000000
      9484        71  POPC      C37            26.0748209164       -6.2286317376       -5.0530658641  MEMB      71              0.0000000000
      9485        71  POPC      H7X            26.0483116031       -5.2132939963       -4.6028361701  MEMB      71              0.0000000000
      9486        71  POPC      H7Y            26.9315937362       -6.7771865924       -4.6065808255  MEMB      71              0.0000000000
      9487        71  POPC      C38            24.7402425077       -6.9327671229       -4.7255624008  MEMB      71              0.0000000000
      9488        71  POPC      H8X            24.8544936006       -8.0255532266       -4.8901404165  MEMB      71              0.0000000000
      9489        71  POPC      H8Y            24.0219756973       -6.4224888331       -5.4023412048  MEMB      71              0.0000000000
      9490        71  POPC      C39            24.2900482070       -6.8023002192       -3.1982594648  MEMB      71              0.0000000000
      9491        71  POPC      H9X            23.7112347911       -5.8606911154       -3.0857050176  MEMB      71              0.0000000000
      9492        71  POPC      H9Y            25.2032809475       -6.9234576132       -2.5772546600  MEMB      71              0.0000000000
      9493        71  POPC      C310           23.2445518750       -7.9164460916       -2.8555426337  MEMB      71              0.0000000000
      9494        71  POPC      H10X           23.5529784587       -8.9627619492       -3.0662964616  MEMB      71              0.0000000000
      9495        71  POPC      H10Y           22.4537478591       -7.7292291511       -3.6131050050  MEMB      71              0.0000000000
      9496        71  POPC      C311           22.6801375448       -8.0266941171       -1.4778637898  MEMB      71              0.0000000000
      9497        71  POPC      H11X           23.5130446077       -8.1114943126       -0.7475230792  MEMB      71              0.0000000000
      9498        71  POPC      H11Y           22.2259091683       -9.0394714353       -1.4301149069  MEMB      71              0.0000000000
      9499        71  POPC      C312           21.6340025887       -6.9155982145       -1.1690570748  MEMB      71              0.0000000000
      9500        71  POPC      H12X           20.8282277058       -7.0131911542       -1.9276891741  MEMB      71              0.0000000000
      9501        71  POPC      H12Y           22.0759916661       -5.9575115396       -1.5169608017  MEMB      71              0.0000000000
      9502        71  POPC      C313           21.0776186282       -6.7687546289        0.2118344314  MEMB      71              0.0000000000
      9503        71  POPC      H13X           21.9603212128       -6.9390370997        0.8646448058  MEMB      71              0.0000000000
      9504        71  POPC      H13Y           20.3233780181       -7.5508783968        0.4436178506  MEMB      71              0.0000000000
      9505        71  POPC      C314           20.5244014451       -5.4427868695        0.6101859946  MEMB      71              0.0000000000
      9506        71  POPC      H14X           19.7747666717       -5.7768488932        1.3590336042  MEMB      71              0.0000000000
      9507        71  POPC      H14Y           19.9634322833       -4.8781925232       -0.1649700756  MEMB      71              0.0000000000
      9508        71  POPC      C315           21.4181879762       -4.3635606047        1.3049229184  MEMB      71              0.0000000000
      9509        71  POPC      H15X           21.9966595405       -4.8506977297        2.1187953803  MEMB      71              0.0000000000
      9510        71  POPC      H15Y           20.7298936729       -3.6512706622        1.8081280158  MEMB      71              0.0000000000
      9511        71  POPC      C316           22.2455039466       -3.5236934875        0.3557819829  MEMB      71              0.0000000000
      9512        71  POPC      H16X           21.5375762742       -3.0595115777       -0.3637271759  MEMB      71              0.0000000000
      9513        71  POPC      H16Y           23.0832571581       -4.1121924900       -0.0756783443  MEMB      71              0.0000000000
      9514        71  POPC      H16Z           22.6758598945       -2.6418536868        0.8768135559  MEMB      71              0.0000000000
      9515        72  POPC      N             -15.0784816251       16.7319610319      -19.8645564509  MEMB      72              0.0000000000
      9516        72  POPC      C12           -15.2488869614       18.0311451742      -20.6274520697  MEMB      72              0.0000000000
      9517        72  POPC      H12A          -16.1729690115       18.0246067463      -21.1864061250  MEMB      72              0.0000000000
      9518        72  POPC      H12B          -14.5247986535       17.9860853442      -21.4274931832  MEMB      72              0.0000000000
      9519        72  POPC      C13           -16.2529911471       16.2831430907      -19.0281670453  MEMB      72              0.0000000000
      9520        72  POPC      H13A          -17.1083398313       16.4167314166      -19.6738702676  MEMB      72              0.0000000000
      9521        72  POPC      H13B          -16.1715820482       15.2575093064      -18.6997646883  MEMB      72              0.0000000000
      9522        72  POPC      H13C          -16.4100404440       16.9079614381      -18.1613698342  MEMB      72              0.0000000000
      9523        72  POPC      C14           -14.7137512458       15.6795039082      -20.9030736204  MEMB      72              0.0000000000
      9524        72  POPC      H14A          -15.4235418347       15.5439315457      -21.7057053882  MEMB      72              0.0000000000
      9525        72  POPC      H14B          -13.7871941546       15.8897655459      -21.4165733618  MEMB      72              0.0000000000
      9526        72  POPC      H14C          -14.5507230610       14.7178037576      -20.4394416017  MEMB      72              0.0000000000
      9527        72  POPC      C15           -13.8937194974       16.7536618371      -18.9750173785  MEMB      72              0.0000000000
      9528        72  POPC      H15A          -14.1099815237       17.4564847170      -18.1840237352  MEMB      72              0.0000000000
      9529        72  POPC      H15B          -13.0539977010       17.1322866906      -19.5388527984  MEMB      72              0.0000000000
      9530        72  POPC      H15C          -13.6459329760       15.7773312673      -18.5854275768  MEMB      72              0.0000000000
      9531        72  POPC      C11           -15.1263595371       19.3188026534      -19.8253870583  MEMB      72              0.0000000000
      9532        72  POPC      H11A          -15.0701941214       20.1337226147      -20.5784288413  MEMB      72              0.0000000000
      9533        72  POPC      H11B          -14.1937593091       19.3339536913      -19.2217743492  MEMB      72              0.0000000000
      9534        72  POPC      P             -16.3226285381       20.4956843251      -17.9331283165  MEMB      72              0.0000000000
      9535        72  POPC      O13           -15.6798081656       21.6964901905      -18.5083674546  MEMB      72              0.0000000000
      9536        72  POPC      O14           -15.8145207364       19.9411699912      -16.6336121785  MEMB      72              0.0000000000
      9537        72  POPC      O12           -16.2971782820       19.3994718751      -19.0195958294  MEMB      72              0.0000000000
      9538        72  POPC      O11           -17.8458510391       20.7617978577      -17.6816425956  MEMB      72              0.0000000000
      9539        72  POPC      C1            -18.7950554601       19.6829663869      -17.9520206549  MEMB      72              0.0000000000
      9540        72  POPC      HA            -18.3164301433       18.7521694839      -18.3246545502  MEMB      72              0.0000000000
      9541        72  POPC      HB            -19.4848010322       19.9918510201      -18.7663684650  MEMB      72              0.0000000000
      9542        72  POPC      C2            -19.6160132695       19.3988297253      -16.6075797783  MEMB      72              0.0000000000
      9543        72  POPC      HS            -20.6133022114       19.8696695561      -16.7419131862  MEMB      72              0.0000000000
      9544        72  POPC      O21           -18.8383650822       19.9885351415      -15.5534582290  MEMB      72              0.0000000000
      9545        72  POPC      C21           -19.4253230178       20.8849927507      -14.7655818692  MEMB      72              0.0000000000
      9546        72  POPC      O22           -20.5286094483       21.3170409541      -14.9202355649  MEMB      72              0.0000000000
      9547        72  POPC      C22           -18.4841807483       21.3172272811      -13.6304942336  MEMB      72              0.0000000000
      9548        72  POPC      H2R           -18.4048318644       22.4247810759      -13.6672272412  MEMB      72              0.0000000000
      9549        72  POPC      H2S           -17.4978755113       20.8689717142      -13.8766443864  MEMB      72              0.0000000000
      9550        72  POPC      C3            -19.8084568319       17.9010085505      -16.2514777967  MEMB      72              0.0000000000
      9551        72  POPC      HX            -20.4815168505       17.3693294538      -16.9576141183  MEMB      72              0.0000000000
      9552        72  POPC      HY            -20.3099038057       17.8439588677      -15.2617215417  MEMB      72              0.0000000000
      9553        72  POPC      O31           -18.5562622707       17.1513992874      -16.2259554035  MEMB      72              0.0000000000
      9554        72  POPC      C31           -18.6338711458       15.8762652611      -15.9426929146  MEMB      72              0.0000000000
      9555        72  POPC      O32           -19.7078980668       15.2730027369      -15.8369844927  MEMB      72              0.0000000000
      9556        72  POPC      C32           -17.2734584148       15.1931365471      -15.9576826153  MEMB      72              0.0000000000
      9557        72  POPC      H2X           -16.4855361744       15.9559452488      -16.1355093953  MEMB      72              0.0000000000
      9558        72  POPC      H2Y           -17.2600037599       14.4823379098      -16.8114422026  MEMB      72              0.0000000000
      9559        72  POPC      C23           -19.1346882804       20.9446414037      -12.2471597310  MEMB      72              0.0000000000
      9560        72  POPC      H3R           -20.1552980648       21.3782383200      -12.1788162301  MEMB      72              0.0000000000
      9561        72  POPC      H3S           -18.5583213259       21.4378022701      -11.4354241723  MEMB      72              0.0000000000
      9562        72  POPC      C24           -19.0777344884       19.4325118192      -11.9402785561  MEMB      72              0.0000000000
      9563        72  POPC      H4R           -18.0053321276       19.1430730307      -11.9179308888  MEMB      72              0.0000000000
      9564        72  POPC      H4S           -19.6535831493       18.8047717357      -12.6534836711  MEMB      72              0.0000000000
      9565        72  POPC      C25           -19.7894728159       18.9861008436      -10.5800715338  MEMB      72              0.0000000000
      9566        72  POPC      H5R           -19.7118666676       17.8788176142      -10.6272071622  MEMB      72              0.0000000000
      9567        72  POPC      H5S           -20.8945516854       19.0759317990      -10.6511503501  MEMB      72              0.0000000000
      9568        72  POPC      C26           -19.2056637617       19.6350708415       -9.3095906858  MEMB      72              0.0000000000
      9569        72  POPC      H6R           -19.3478843572       20.7345634680       -9.3817722758  MEMB      72              0.0000000000
      9570        72  POPC      H6S           -18.1130600494       19.4342835255       -9.2946725449  MEMB      72              0.0000000000
      9571        72  POPC      C27           -19.5939542956       19.0646948740       -7.9553314385  MEMB      72              0.0000000000
      9572        72  POPC      H7R           -19.0009500791       19.5634099514       -7.1591214351  MEMB      72              0.0000000000
      9573        72  POPC      H7S           -19.2907627037       18.0080408427       -8.1161978334  MEMB      72              0.0000000000
      9574        72  POPC      C28           -21.0199006536       19.3715274207       -7.4816889613  MEMB      72              0.0000000000
      9575        72  POPC      H8R           -20.9780233616       18.8609057816       -6.4958735220  MEMB      72              0.0000000000
      9576        72  POPC      H8S           -21.6727849287       18.8327880499       -8.2012882613  MEMB      72              0.0000000000
      9577        72  POPC      C29           -21.4714972778       20.7604981579       -7.1346411228  MEMB      72              0.0000000000
      9578        72  POPC      H91           -22.1334048658       21.1860436814       -7.9032695553  MEMB      72              0.0000000000
      9579        72  POPC      C210          -21.1699976072       21.4042980770       -6.0556950430  MEMB      72              0.0000000000
      9580        72  POPC      H101          -21.6452079357       22.3809249778       -5.8814122505  MEMB      72              0.0000000000
      9581        72  POPC      C211          -20.2873053645       20.8665739116       -4.9191736294  MEMB      72              0.0000000000
      9582        72  POPC      H11R          -20.2706643907       19.7578217910       -4.8505227920  MEMB      72              0.0000000000
      9583        72  POPC      H11S          -20.9121940042       21.0771418330       -4.0250280189  MEMB      72              0.0000000000
      9584        72  POPC      C212          -18.9505997757       21.5952775894       -4.6391201158  MEMB      72              0.0000000000
      9585        72  POPC      H12R          -18.3278346367       21.6272457002       -5.5586100389  MEMB      72              0.0000000000
      9586        72  POPC      H12S          -18.4487169453       21.1001445000       -3.7804715456  MEMB      72              0.0000000000
      9587        72  POPC      C213          -19.1318555897       23.0926516991       -4.1765921753  MEMB      72              0.0000000000
      9588        72  POPC      H13R          -19.7339991786       23.6059334820       -4.9565184699  MEMB      72              0.0000000000
      9589        72  POPC      H13S          -18.1279786845       23.5685672307       -4.1690680493  MEMB      72              0.0000000000
      9590        72  POPC      C214          -19.8728174922       23.3414513351       -2.8651192937  MEMB      72              0.0000000000
      9591        72  POPC      H14R          -20.9307111889       23.0114144302       -2.7860157117  MEMB      72              0.0000000000
      9592        72  POPC      H14S          -19.8939276265       24.4307896141       -2.6478235019  MEMB      72              0.0000000000
      9593        72  POPC      C215          -19.1420428636       22.9014252738       -1.6335965355  MEMB      72              0.0000000000
      9594        72  POPC      H15R          -18.1280906916       23.3271162444       -1.4754536105  MEMB      72              0.0000000000
      9595        72  POPC      H15S          -19.1360326315       21.8013430049       -1.7888523123  MEMB      72              0.0000000000
      9596        72  POPC      C216          -19.8806595586       22.9564463942       -0.2975342308  MEMB      72              0.0000000000
      9597        72  POPC      H16R          -20.6931208741       22.2002862629       -0.3470266000  MEMB      72              0.0000000000
      9598        72  POPC      H16S          -20.3285646855       23.9640511227       -0.1617617274  MEMB      72              0.0000000000
      9599        72  POPC      C217          -19.0074206450       22.6974753903        1.0089159579  MEMB      72              0.0000000000
      9600        72  POPC      H17R          -19.3708044850       23.4120813560        1.7780793583  MEMB      72              0.0000000000
      9601        72  POPC      H17S          -17.9600495827       23.0124131943        0.8135985731  MEMB      72              0.0000000000
      9602        72  POPC      C218          -19.2217118237       21.3335443889        1.6789291040  MEMB      72              0.0000000000
      9603        72  POPC      H18R          -18.8227277665       21.1823446570        2.7047328906  MEMB      72              0.0000000000
      9604        72  POPC      H18S          -18.9044327684       20.5281153059        0.9825533119  MEMB      72              0.0000000000
      9605        72  POPC      H18T          -20.2922265838       21.3350672301        1.9761121683  MEMB      72              0.0000000000
      9606        72  POPC      C33           -17.0417064513       14.5185167861      -14.6236790464  MEMB      72              0.0000000000
      9607        72  POPC      H3X           -16.1821255267       13.8361939589      -14.7965296833  MEMB      72              0.0000000000
      9608        72  POPC      H3Y           -17.9303149592       13.9435692302      -14.2858466145  MEMB      72              0.0000000000
      9609        72  POPC      C34           -16.6013416336       15.4451617711      -13.4751817213  MEMB      72              0.0000000000
      9610        72  POPC      H4X           -17.3894117901       16.1155899492      -13.0704685940  MEMB      72              0.0000000000
      9611        72  POPC      H4Y           -15.8056936006       16.0538716962      -13.9555331836  MEMB      72              0.0000000000
      9612        72  POPC      C35           -16.0961571382       14.6491476332      -12.1932251404  MEMB      72              0.0000000000
      9613        72  POPC      H5X           -15.4460767891       13.8262963974      -12.5601476338  MEMB      72              0.0000000000
      9614        72  POPC      H5Y           -16.9819755292       14.2065439611      -11.6894901901  MEMB      72              0.0000000000
      9615        72  POPC      C36           -15.2049541273       15.3502107983      -11.2709488723  MEMB      72              0.0000000000
      9616        72  POPC      H6X           -14.4122697772       15.8097707830      -11.8992619267  MEMB      72              0.0000000000
      9617        72  POPC      H6Y           -14.7387503265       14.5731687032      -10.6281575734  MEMB      72              0.0000000000
      9618        72  POPC      C37           -15.9736365668       16.5145440411      -10.5970078501  MEMB      72              0.0000000000
      9619        72  POPC      H7X           -17.0082153549       16.2065577242      -10.3341154807  MEMB      72              0.0000000000
      9620        72  POPC      H7Y           -15.9815878133       17.3462642099      -11.3335528971  MEMB      72              0.0000000000
      9621        72  POPC      C38           -15.3210027053       16.9164282129       -9.2720251934  MEMB      72              0.0000000000
      9622        72  POPC      H8X           -15.9703611558       17.7352157605       -8.8948748126  MEMB      72              0.0000000000
      9623        72  POPC      H8Y           -14.3028881421       17.3304964460       -9.4342319055  MEMB      72              0.0000000000
      9624        72  POPC      C39           -15.1630219017       15.8241846696       -8.1883338119  MEMB      72              0.0000000000
      9625        72  POPC      H9X           -14.5557082414       15.0038747515       -8.6271767640  MEMB      72              0.0000000000
      9626        72  POPC      H9Y           -16.1702266800       15.3957504341       -7.9977999857  MEMB      72              0.0000000000
      9627        72  POPC      C310          -14.3949017030       16.3321955260       -6.9905040663  MEMB      72              0.0000000000
      9628        72  POPC      H10X          -13.5034676030       16.7926842143       -7.4675956914  MEMB      72              0.0000000000
      9629        72  POPC      H10Y          -13.9579023214       15.5393335360       -6.3465145974  MEMB      72              0.0000000000
      9630        72  POPC      C311          -15.0305128763       17.4108668795       -6.1282973845  MEMB      72              0.0000000000
      9631        72  POPC      H11X          -15.2801023034       18.3143483618       -6.7247433976  MEMB      72              0.0000000000
      9632        72  POPC      H11Y          -14.3437911305       17.7749065546       -5.3344397821  MEMB      72              0.0000000000
      9633        72  POPC      C312          -16.2066091859       16.7567575327       -5.3895875808  MEMB      72              0.0000000000
      9634        72  POPC      H12X          -15.9072492483       15.7688432622       -4.9788206032  MEMB      72              0.0000000000
      9635        72  POPC      H12Y          -17.0946412301       16.6676020388       -6.0512309890  MEMB      72              0.0000000000
      9636        72  POPC      C313          -16.5301397677       17.6495758679       -4.1186273258  MEMB      72              0.0000000000
      9637        72  POPC      H13X          -16.8078904287       18.6105375840       -4.6020817736  MEMB      72              0.0000000000
      9638        72  POPC      H13Y          -15.5813998033       17.9009621834       -3.5980333164  MEMB      72              0.0000000000
      9639        72  POPC      C314          -17.6938475516       17.2032703591       -3.3007007740  MEMB      72              0.0000000000
      9640        72  POPC      H14X          -17.5915182291       16.1578590508       -2.9388101175  MEMB      72              0.0000000000
      9641        72  POPC      H14Y          -18.6379309026       17.1903975064       -3.8862450934  MEMB      72              0.0000000000
      9642        72  POPC      C315          -17.9726218499       18.1461466007       -2.1137920638  MEMB      72              0.0000000000
      9643        72  POPC      H15X          -18.7544307497       17.5822025979       -1.5614660690  MEMB      72              0.0000000000
      9644        72  POPC      H15Y          -18.2304606468       19.1463244070       -2.5230402349  MEMB      72              0.0000000000
      9645        72  POPC      C316          -16.8094643501       18.2564964820       -1.1747552935  MEMB      72              0.0000000000
      9646        72  POPC      H16X          -16.3692407276       17.2779155454       -0.8868250060  MEMB      72              0.0000000000
      9647        72  POPC      H16Y          -17.2774969855       18.7273596320       -0.2839372553  MEMB      72              0.0000000000
      9648        72  POPC      H16Z          -15.9642669224       18.8767253981       -1.5425563983  MEMB      72              0.0000000000
      9649        73  POPC      N              21.4596799052      -16.1132781770      -19.4415795265  MEMB      73              0.0000000000
      9650        73  POPC      C12            22.5863963916      -15.0655771647      -19.3420403169  MEMB      73              0.0000000000
      9651        73  POPC      H12A           22.7254584370      -14.6192541266      -20.3156200388  MEMB      73              0.0000000000
      9652        73  POPC      H12B           23.4358496477      -15.6628039389      -19.0451411149  MEMB      73              0.0000000000
      9653        73  POPC      C13            20.3936429188      -15.5842166294      -20.3626573625  MEMB      73              0.0000000000
      9654        73  POPC      H13A           19.9392951156      -14.8198125123      -19.7497508384  MEMB      73              0.0000000000
      9655        73  POPC      H13B           20.8361227637      -15.1606509809      -21.2521535344  MEMB      73              0.0000000000
      9656        73  POPC      H13C           19.7322972842      -16.3701707172      -20.6962715477  MEMB      73              0.0000000000
      9657        73  POPC      C14            22.0624423503      -17.2349466037      -20.1666473266  MEMB      73              0.0000000000
      9658        73  POPC      H14A           22.7907516675      -17.7720032332      -19.5771256287  MEMB      73              0.0000000000
      9659        73  POPC      H14B           21.2546503094      -17.8902331612      -20.4572864162  MEMB      73              0.0000000000
      9660        73  POPC      H14C           22.5699404637      -16.9061312767      -21.0614803921  MEMB      73              0.0000000000
      9661        73  POPC      C15            20.9196001722      -16.6090946631      -18.1721815707  MEMB      73              0.0000000000
      9662        73  POPC      H15A           21.7086683567      -17.1647975870      -17.6874490194  MEMB      73              0.0000000000
      9663        73  POPC      H15B           20.0537060436      -17.2088963387      -18.4106459017  MEMB      73              0.0000000000
      9664        73  POPC      H15C           20.7261669946      -15.8233176602      -17.4569627378  MEMB      73              0.0000000000
      9665        73  POPC      C11            22.3136684265      -13.7930527289      -18.5235822612  MEMB      73              0.0000000000
      9666        73  POPC      H11A           23.0693344075      -13.0481631541      -18.8528683685  MEMB      73              0.0000000000
      9667        73  POPC      H11B           22.3092320094      -13.9587115996      -17.4250111163  MEMB      73              0.0000000000
      9668        73  POPC      P              20.6266574438      -11.6871013874      -18.6287390306  MEMB      73              0.0000000000
      9669        73  POPC      O13            19.2525924784      -11.4598409626      -19.1532653885  MEMB      73              0.0000000000
      9670        73  POPC      O14            21.7166209722      -10.9360634803      -19.3289836231  MEMB      73              0.0000000000
      9671        73  POPC      O12            21.0024034888      -13.2735707554      -18.8565000751  MEMB      73              0.0000000000
      9672        73  POPC      O11            20.7855785534      -11.4850010465      -17.0238235187  MEMB      73              0.0000000000
      9673        73  POPC      C1             19.8598484689      -12.0706212995      -16.1741203490  MEMB      73              0.0000000000
      9674        73  POPC      HA             19.7642684528      -13.1590689654      -16.3752847647  MEMB      73              0.0000000000
      9675        73  POPC      HB             18.8987934303      -11.5628647436      -16.4040714820  MEMB      73              0.0000000000
      9676        73  POPC      C2             20.1851026786      -12.0181972929      -14.7385177097  MEMB      73              0.0000000000
      9677        73  POPC      HS             20.6493810429      -11.0673594732      -14.3998819876  MEMB      73              0.0000000000
      9678        73  POPC      O21            21.0413656396      -13.0939783014      -14.4226794897  MEMB      73              0.0000000000
      9679        73  POPC      C21            22.3568194673      -13.0690577039      -14.6697343146  MEMB      73              0.0000000000
      9680        73  POPC      O22            22.9932293343      -12.1122620867      -15.0760631504  MEMB      73              0.0000000000
      9681        73  POPC      C22            22.8664392904      -14.4930098371      -14.4481834047  MEMB      73              0.0000000000
      9682        73  POPC      H2R            22.4449205706      -15.1826454633      -15.2104470412  MEMB      73              0.0000000000
      9683        73  POPC      H2S            22.4398222804      -14.8113553672      -13.4730037742  MEMB      73              0.0000000000
      9684        73  POPC      C3             18.9509575545      -12.1139510573      -13.8498949253  MEMB      73              0.0000000000
      9685        73  POPC      HX             18.4341817123      -13.0590067197      -14.1221694895  MEMB      73              0.0000000000
      9686        73  POPC      HY             18.2808174157      -11.2670819821      -14.1107513167  MEMB      73              0.0000000000
      9687        73  POPC      O31            19.3513408184      -12.2209779778      -12.4967225555  MEMB      73              0.0000000000
      9688        73  POPC      C31            19.3773652417      -11.0406621030      -11.8974625116  MEMB      73              0.0000000000
      9689        73  POPC      O32            19.1872505998       -9.9416718773      -12.3849939538  MEMB      73              0.0000000000
      9690        73  POPC      C32            19.5510687253      -11.3281088728      -10.4074072474  MEMB      73              0.0000000000
      9691        73  POPC      H2X            20.4506856187      -11.9696430024      -10.2914573689  MEMB      73              0.0000000000
      9692        73  POPC      H2Y            18.6780435326      -11.9298993909      -10.0757504911  MEMB      73              0.0000000000
      9693        73  POPC      C23            24.4081694602      -14.6004988361      -14.3841352475  MEMB      73              0.0000000000
      9694        73  POPC      H3R            24.7951696662      -13.7482881621      -13.7855628357  MEMB      73              0.0000000000
      9695        73  POPC      H3S            24.8044157014      -14.3976142152      -15.4020485476  MEMB      73              0.0000000000
      9696        73  POPC      C24            24.8495222847      -15.9701325471      -13.7970102466  MEMB      73              0.0000000000
      9697        73  POPC      H4R            25.5642290513      -16.4095105898      -14.5253389216  MEMB      73              0.0000000000
      9698        73  POPC      H4S            24.0268503784      -16.7133124240      -13.8692285731  MEMB      73              0.0000000000
      9699        73  POPC      C25            25.3852653604      -15.9207680392      -12.3672177452  MEMB      73              0.0000000000
      9700        73  POPC      H5R            26.2550858262      -15.2470927367      -12.2126377287  MEMB      73              0.0000000000
      9701        73  POPC      H5S            25.5383134350      -16.9276775261      -11.9233366431  MEMB      73              0.0000000000
      9702        73  POPC      C26            24.2634601851      -15.3725711032      -11.4450063079  MEMB      73              0.0000000000
      9703        73  POPC      H6R            23.2731375774      -15.8139519734      -11.6874213908  MEMB      73              0.0000000000
      9704        73  POPC      H6S            24.2847172793      -14.2758669711      -11.6213844159  MEMB      73              0.0000000000
      9705        73  POPC      C27            24.6087392682      -15.3741969692       -9.9067748824  MEMB      73              0.0000000000
      9706        73  POPC      H7R            25.5417751882      -14.7983209368       -9.7275209266  MEMB      73              0.0000000000
      9707        73  POPC      H7S            24.7750564024      -16.4206574570       -9.5727387081  MEMB      73              0.0000000000
      9708        73  POPC      C28            23.4277077950      -14.8817848550       -8.9353934709  MEMB      73              0.0000000000
      9709        73  POPC      H8R            23.4353841597      -13.7711607348       -8.9075359059  MEMB      73              0.0000000000
      9710        73  POPC      H8S            23.7497090949      -15.2387383029       -7.9337841917  MEMB      73              0.0000000000
      9711        73  POPC      C29            22.0602499532      -15.3005600938       -9.3334628255  MEMB      73              0.0000000000
      9712        73  POPC      H91            21.6129897135      -14.6267017822      -10.0790315891  MEMB      73              0.0000000000
      9713        73  POPC      C210           21.2412098738      -16.2615597445       -8.9468997849  MEMB      73              0.0000000000
      9714        73  POPC      H101           20.2910200504      -16.4563691016       -9.4657344129  MEMB      73              0.0000000000
      9715        73  POPC      C211           21.4722103025      -17.3229957756       -7.8592275663  MEMB      73              0.0000000000
      9716        73  POPC      H11R           22.5023526093      -17.1655761012       -7.4740691722  MEMB      73              0.0000000000
      9717        73  POPC      H11S           21.3439025425      -18.3843002453       -8.1617025592  MEMB      73              0.0000000000
      9718        73  POPC      C212           20.5311181400      -17.0772986779       -6.6230222024  MEMB      73              0.0000000000
      9719        73  POPC      H12R           20.3763633400      -18.0676274270       -6.1438334726  MEMB      73              0.0000000000
      9720        73  POPC      H12S           19.4685037328      -16.9649815496       -6.9272527939  MEMB      73              0.0000000000
      9721        73  POPC      C213           20.8636138265      -15.8881427119       -5.7404852005  MEMB      73              0.0000000000
      9722        73  POPC      H13R           20.6153812775      -14.9472919377       -6.2766766200  MEMB      73              0.0000000000
      9723        73  POPC      H13S           21.9682801549      -15.9275517332       -5.6287696184  MEMB      73              0.0000000000
      9724        73  POPC      C214           20.2819844704      -15.9458437673       -4.3317954950  MEMB      73              0.0000000000
      9725        73  POPC      H14R           21.0938590626      -15.7320703805       -3.6041411212  MEMB      73              0.0000000000
      9726        73  POPC      H14S           19.8636097242      -16.9359775981       -4.0508707997  MEMB      73              0.0000000000
      9727        73  POPC      C215           19.0893639762      -14.9859663921       -4.2589057257  MEMB      73              0.0000000000
      9728        73  POPC      H15R           18.3122107263      -15.2873557009       -4.9934248077  MEMB      73              0.0000000000
      9729        73  POPC      H15S           19.4685574309      -13.9517050486       -4.4032549773  MEMB      73              0.0000000000
      9730        73  POPC      C216           18.3569417932      -14.9137409064       -2.8370713548  MEMB      73              0.0000000000
      9731        73  POPC      H16R           19.1637575805      -14.8136771616       -2.0798669419  MEMB      73              0.0000000000
      9732        73  POPC      H16S           17.7920342573      -15.8374460039       -2.5881343340  MEMB      73              0.0000000000
      9733        73  POPC      C217           17.2972250640      -13.7271225075       -2.7129189553  MEMB      73              0.0000000000
      9734        73  POPC      H17R           16.5341517421      -13.9376398694       -3.4924853809  MEMB      73              0.0000000000
      9735        73  POPC      H17S           17.6270704484      -12.6885667934       -2.9295422069  MEMB      73              0.0000000000
      9736        73  POPC      C218           16.6322490506      -13.6579506583       -1.3626660793  MEMB      73              0.0000000000
      9737        73  POPC      H18R           16.1885854133      -14.6363560753       -1.0794581620  MEMB      73              0.0000000000
      9738        73  POPC      H18S           15.9112831989      -12.8128804496       -1.3823025093  MEMB      73              0.0000000000
      9739        73  POPC      H18T           17.4700220189      -13.4509614585       -0.6629430700  MEMB      73              0.0000000000
      9740        73  POPC      C33            19.7151538681      -10.0096395406       -9.5940523816  MEMB      73              0.0000000000
      9741        73  POPC      H3X            18.9930483157       -9.2504023121       -9.9634358318  MEMB      73              0.0000000000
      9742        73  POPC      H3Y            20.6362187266       -9.4363678847       -9.8334692220  MEMB      73              0.0000000000
      9743        73  POPC      C34            19.6515274330      -10.0666958437       -8.0850836166  MEMB      73              0.0000000000
      9744        73  POPC      H4X            18.6136281279      -10.3617178854       -7.8204181904  MEMB      73              0.0000000000
      9745        73  POPC      H4Y            19.8477932173       -9.0682443984       -7.6391073278  MEMB      73              0.0000000000
      9746        73  POPC      C35            20.6225886340      -11.0728913915       -7.4443981796  MEMB      73              0.0000000000
      9747        73  POPC      H5X            20.3259824035      -12.0903724337       -7.7776821580  MEMB      73              0.0000000000
      9748        73  POPC      H5Y            20.4317940897      -10.9964234564       -6.3525782972  MEMB      73              0.0000000000
      9749        73  POPC      C36            22.1198314019      -10.8328497034       -7.6607753634  MEMB      73              0.0000000000
      9750        73  POPC      H6X            22.2757248886       -9.7458067846       -7.4923839124  MEMB      73              0.0000000000
      9751        73  POPC      H6Y            22.3219954173      -10.9720976680       -8.7443161421  MEMB      73              0.0000000000
      9752        73  POPC      C37            23.1243687430      -11.6503136712       -6.7503568386  MEMB      73              0.0000000000
      9753        73  POPC      H7X            24.0034560086      -11.9125063973       -7.3770797296  MEMB      73              0.0000000000
      9754        73  POPC      H7Y            22.6502148906      -12.6379082630       -6.5655444739  MEMB      73              0.0000000000
      9755        73  POPC      C38            23.6819967182      -10.9860031835       -5.5044546668  MEMB      73              0.0000000000
      9756        73  POPC      H8X            23.8547366610       -9.9419210315       -5.8426471560  MEMB      73              0.0000000000
      9757        73  POPC      H8Y            24.6760682447      -11.4125466560       -5.2510693302  MEMB      73              0.0000000000
      9758        73  POPC      C39            22.7160690158      -10.8900856574       -4.3299902066  MEMB      73              0.0000000000
      9759        73  POPC      H9X            21.6528621671      -10.9244461469       -4.6505081489  MEMB      73              0.0000000000
      9760        73  POPC      H9Y            22.7999420114       -9.9291555261       -3.7787198511  MEMB      73              0.0000000000
      9761        73  POPC      C310           22.9341430374      -12.0343987328       -3.3422985492  MEMB      73              0.0000000000
      9762        73  POPC      H10X           23.9843588057      -12.0314268384       -2.9798638228  MEMB      73              0.0000000000
      9763        73  POPC      H10Y           22.6950761598      -13.0060453378       -3.8250728919  MEMB      73              0.0000000000
      9764        73  POPC      C311           21.8872420320      -11.8766468136       -2.2261264285  MEMB      73              0.0000000000
      9765        73  POPC      H11X           21.5270482382      -12.8077555810       -1.7386662957  MEMB      73              0.0000000000
      9766        73  POPC      H11Y           21.0365111627      -11.2817254134       -2.6219126014  MEMB      73              0.0000000000
      9767        73  POPC      C312           22.4584449104      -10.9984842511       -1.1534583417  MEMB      73              0.0000000000
      9768        73  POPC      H12X           21.7260819343      -10.7910213969       -0.3441839323  MEMB      73              0.0000000000
      9769        73  POPC      H12Y           22.9492599291      -10.0384661171       -1.4213879721  MEMB      73              0.0000000000
      9770        73  POPC      C313           23.5073146016      -11.6595956635       -0.2213435099  MEMB      73              0.0000000000
      9771        73  POPC      H13X           23.8369039490      -10.9042008630        0.5236868039  MEMB      73              0.0000000000
      9772        73  POPC      H13Y           24.3973544693      -11.7478885562       -0.8804000984  MEMB      73              0.0000000000
      9773        73  POPC      C314           23.1010606954      -13.0122654506        0.4840877310  MEMB      73              0.0000000000
      9774        73  POPC      H14X           23.8129260207      -13.1804547443        1.3203180983  MEMB      73              0.0000000000
      9775        73  POPC      H14Y           23.1663371998      -13.8881629376       -0.1962529750  MEMB      73              0.0000000000
      9776        73  POPC      C315           21.6623346136      -13.0136176024        1.0813138640  MEMB      73              0.0000000000
      9777        73  POPC      H15X           20.9905508476      -12.5762141681        0.3120907159  MEMB      73              0.0000000000
      9778        73  POPC      H15Y           21.5372350375      -12.4087630560        2.0047976400  MEMB      73              0.0000000000
      9779        73  POPC      C316           21.3461940666      -14.4011088710        1.6183852862  MEMB      73              0.0000000000
      9780        73  POPC      H16X           21.5766970611      -15.2652792906        0.9592968603  MEMB      73              0.0000000000
      9781        73  POPC      H16Y           20.2573542051      -14.4214255185        1.8382415746  MEMB      73              0.0000000000
      9782        73  POPC      H16Z           21.8531140370      -14.6139828252        2.5838076019  MEMB      73              0.0000000000
      9783        74  POPC      N              28.4730643539        1.6127682423      -21.0613384403  MEMB      74              0.0000000000
      9784        74  POPC      C12            28.3492503311        0.7328059791      -19.8681344349  MEMB      74              0.0000000000
      9785        74  POPC      H12A           29.1845676996        1.0043303364      -19.2397084388  MEMB      74              0.0000000000
      9786        74  POPC      H12B           28.3725847915       -0.3127767205      -20.1376010563  MEMB      74              0.0000000000
      9787        74  POPC      C13            27.4261654126        1.3902201209      -22.1106729166  MEMB      74              0.0000000000
      9788        74  POPC      H13A           27.1965523952        0.3758011258      -22.4015887523  MEMB      74              0.0000000000
      9789        74  POPC      H13B           26.5140710914        1.8690529604      -21.7863229782  MEMB      74              0.0000000000
      9790        74  POPC      H13C           27.6475320996        2.0253170758      -22.9556870212  MEMB      74              0.0000000000
      9791        74  POPC      C14            28.4975876479        3.0406286580      -20.6504160690  MEMB      74              0.0000000000
      9792        74  POPC      H14A           29.2944353656        3.0936810898      -19.9233540414  MEMB      74              0.0000000000
      9793        74  POPC      H14B           28.7562091058        3.6573193153      -21.4984770023  MEMB      74              0.0000000000
      9794        74  POPC      H14C           27.5377249399        3.3317888771      -20.2500546692  MEMB      74              0.0000000000
      9795        74  POPC      C15            29.8052775272        1.2247282267      -21.7615812772  MEMB      74              0.0000000000
      9796        74  POPC      H15A           30.0593402675        1.8966157689      -22.5680670290  MEMB      74              0.0000000000
      9797        74  POPC      H15B           29.8034136521        0.1691836611      -21.9901026139  MEMB      74              0.0000000000
      9798        74  POPC      H15C           30.6836433345        1.3056656596      -21.1384259004  MEMB      74              0.0000000000
      9799        74  POPC      C11            27.0789479513        1.0282985982      -18.9381469503  MEMB      74              0.0000000000
      9800        74  POPC      H11A           26.9967557107        0.1090105320      -18.3197013410  MEMB      74              0.0000000000
      9801        74  POPC      H11B           26.0405173173        1.0476533337      -19.3326189830  MEMB      74              0.0000000000
      9802        74  POPC      P              28.3213177268        2.1132603822      -16.8955308264  MEMB      74              0.0000000000
      9803        74  POPC      O13            29.6999152341        2.3415668214      -17.2662319477  MEMB      74              0.0000000000
      9804        74  POPC      O14            28.0340977625        0.9319370541      -16.0619185664  MEMB      74              0.0000000000
      9805        74  POPC      O12            27.4034762405        2.1839413395      -18.1871034213  MEMB      74              0.0000000000
      9806        74  POPC      O11            27.8297960135        3.3769323644      -16.1989251543  MEMB      74              0.0000000000
      9807        74  POPC      C1             27.8844060524        4.6157218225      -16.8010409671  MEMB      74              0.0000000000
      9808        74  POPC      HA             27.4589585142        4.5291812155      -17.8236973331  MEMB      74              0.0000000000
      9809        74  POPC      HB             28.9061124961        5.0499966547      -16.8439633226  MEMB      74              0.0000000000
      9810        74  POPC      C2             27.0510101591        5.7082315605      -15.9318156113  MEMB      74              0.0000000000
      9811        74  POPC      HS             27.4165128826        6.7034459253      -16.2638954153  MEMB      74              0.0000000000
      9812        74  POPC      O21            27.4162504761        5.5387776533      -14.5360188702  MEMB      74              0.0000000000
      9813        74  POPC      C21            27.1278318259        6.4368025868      -13.6890367458  MEMB      74              0.0000000000
      9814        74  POPC      O22            26.5484402066        7.4842431637      -13.9175254826  MEMB      74              0.0000000000
      9815        74  POPC      C22            27.4778976987        5.9586856143      -12.2373722586  MEMB      74              0.0000000000
      9816        74  POPC      H2R            28.4305325510        6.4735894846      -11.9890143204  MEMB      74              0.0000000000
      9817        74  POPC      H2S            27.7282624301        4.8825086876      -12.1212608437  MEMB      74              0.0000000000
      9818        74  POPC      C3             25.5652209723        5.4559491664      -16.1996744217  MEMB      74              0.0000000000
      9819        74  POPC      HX             25.4826007181        5.6787891441      -17.2849565304  MEMB      74              0.0000000000
      9820        74  POPC      HY             24.8609434789        6.0902302106      -15.6200180935  MEMB      74              0.0000000000
      9821        74  POPC      O31            25.2052115039        4.1079656011      -16.1589501400  MEMB      74              0.0000000000
      9822        74  POPC      C31            24.8886695660        3.6936124260      -14.9481441062  MEMB      74              0.0000000000
      9823        74  POPC      O32            24.6897726212        4.3936926235      -13.9976302209  MEMB      74              0.0000000000
      9824        74  POPC      C32            24.7126222083        2.1537581202      -14.9276229772  MEMB      74              0.0000000000
      9825        74  POPC      H2X            25.5669043195        1.5870571574      -15.3558440152  MEMB      74              0.0000000000
      9826        74  POPC      H2Y            23.7394217380        1.9566490714      -15.4259699562  MEMB      74              0.0000000000
      9827        74  POPC      C23            26.2714687379        6.2781978655      -11.2801714575  MEMB      74              0.0000000000
      9828        74  POPC      H3R            25.2728872785        5.9049484606      -11.5929670301  MEMB      74              0.0000000000
      9829        74  POPC      H3S            26.1969709049        7.3718702695      -11.0994736392  MEMB      74              0.0000000000
      9830        74  POPC      C24            26.5999206261        5.6114966780       -9.9945429244  MEMB      74              0.0000000000
      9831        74  POPC      H4R            27.6524435871        5.9670324062       -9.9840302094  MEMB      74              0.0000000000
      9832        74  POPC      H4S            26.6999445894        4.5102057543      -10.1016630646  MEMB      74              0.0000000000
      9833        74  POPC      C25            25.8246054208        5.9725621032       -8.6255829766  MEMB      74              0.0000000000
      9834        74  POPC      H5R            25.7961259176        7.0802724961       -8.5450374920  MEMB      74              0.0000000000
      9835        74  POPC      H5S            26.4390999909        5.5475076573       -7.8033634570  MEMB      74              0.0000000000
      9836        74  POPC      C26            24.3934109280        5.5285503121       -8.5337360296  MEMB      74              0.0000000000
      9837        74  POPC      H6R            23.8364940865        5.8785332236       -9.4291004098  MEMB      74              0.0000000000
      9838        74  POPC      H6S            23.9389382633        5.8584901946       -7.5751357923  MEMB      74              0.0000000000
      9839        74  POPC      C27            24.1430900603        4.0359247576       -8.6227884704  MEMB      74              0.0000000000
      9840        74  POPC      H7R            24.4102516878        3.7255083201       -9.6555464663  MEMB      74              0.0000000000
      9841        74  POPC      H7S            23.0998913069        3.7205720500       -8.4068964307  MEMB      74              0.0000000000
      9842        74  POPC      C28            25.0461186388        3.1734837022       -7.7461081674  MEMB      74              0.0000000000
      9843        74  POPC      H8R            26.0818044891        3.5271982490       -7.9373206075  MEMB      74              0.0000000000
      9844        74  POPC      H8S            25.0466287752        2.1584179116       -8.1977302074  MEMB      74              0.0000000000
      9845        74  POPC      C29            24.7090666602        3.2523786124       -6.2500020781  MEMB      74              0.0000000000
      9846        74  POPC      H91            24.6871685135        4.2534744444       -5.7946691098  MEMB      74              0.0000000000
      9847        74  POPC      C210           24.3831074409        2.2422979022       -5.3995425905  MEMB      74              0.0000000000
      9848        74  POPC      H101           24.1724877266        2.4359205925       -4.3373992067  MEMB      74              0.0000000000
      9849        74  POPC      C211           24.2724534112        0.7791530762       -5.7439825957  MEMB      74              0.0000000000
      9850        74  POPC      H11R           24.4110885569        0.6257794010       -6.8355761490  MEMB      74              0.0000000000
      9851        74  POPC      H11S           23.2148585867        0.4812787038       -5.5794076304  MEMB      74              0.0000000000
      9852        74  POPC      C212           25.1834934030       -0.2477929149       -4.9987494923  MEMB      74              0.0000000000
      9853        74  POPC      H12R           26.2376189581        0.0884159816       -5.0992690437  MEMB      74              0.0000000000
      9854        74  POPC      H12S           25.1033691212       -1.2019459486       -5.5622142712  MEMB      74              0.0000000000
      9855        74  POPC      C213           24.7858793782       -0.4958948217       -3.5805435471  MEMB      74              0.0000000000
      9856        74  POPC      H13R           23.7387707028       -0.8666783255       -3.5604433409  MEMB      74              0.0000000000
      9857        74  POPC      H13S           24.5805857108        0.4178071407       -2.9827773850  MEMB      74              0.0000000000
      9858        74  POPC      C214           25.5057993758       -1.6411870433       -2.8580553695  MEMB      74              0.0000000000
      9859        74  POPC      H14R           25.5287181970       -2.5905776525       -3.4346422276  MEMB      74              0.0000000000
      9860        74  POPC      H14S           24.8605424134       -1.8623846021       -1.9811083470  MEMB      74              0.0000000000
      9861        74  POPC      C215           26.9532370132       -1.3047556937       -2.4961774374  MEMB      74              0.0000000000
      9862        74  POPC      H15R           27.4215420527       -1.0957577032       -3.4817382638  MEMB      74              0.0000000000
      9863        74  POPC      H15S           27.3933252532       -2.2343783678       -2.0761238537  MEMB      74              0.0000000000
      9864        74  POPC      C216           27.1667422775       -0.0776543796       -1.6069336161  MEMB      74              0.0000000000
      9865        74  POPC      H16R           26.6067793047       -0.1586880226       -0.6507978217  MEMB      74              0.0000000000
      9866        74  POPC      H16S           26.5252357642        0.7627372815       -1.9483010315  MEMB      74              0.0000000000
      9867        74  POPC      C217           28.5751902718        0.3021396845       -1.3136406394  MEMB      74              0.0000000000
      9868        74  POPC      H17R           28.5852742375        0.9665258200       -0.4232418898  MEMB      74              0.0000000000
      9869        74  POPC      H17S           28.9057249268        1.0359277096       -2.0795528849  MEMB      74              0.0000000000
      9870        74  POPC      C218           29.6724180315       -0.6965712036       -1.2552677009  MEMB      74              0.0000000000
      9871        74  POPC      H18R           29.5748770815       -1.3067052777       -0.3319350473  MEMB      74              0.0000000000
      9872        74  POPC      H18S           30.5343857948       -0.0118849899       -1.1051442872  MEMB      74              0.0000000000
      9873        74  POPC      H18T           29.6891524113       -1.3307441073       -2.1673350095  MEMB      74              0.0000000000
      9874        74  POPC      C33            24.5868030754        1.7539775676      -13.3976519089  MEMB      74              0.0000000000
      9875        74  POPC      H3X            24.0014376261        0.8110245152      -13.3475745461  MEMB      74              0.0000000000
      9876        74  POPC      H3Y            23.9506961358        2.3949525860      -12.7504735573  MEMB      74              0.0000000000
      9877        74  POPC      C34            25.9220117568        1.4978487371      -12.7249954941  MEMB      74              0.0000000000
      9878        74  POPC      H4X            26.4099773236        2.4942141209      -12.6661169240  MEMB      74              0.0000000000
      9879        74  POPC      H4Y            26.5595382264        0.9622873441      -13.4605600843  MEMB      74              0.0000000000
      9880        74  POPC      C35            25.8642055581        0.9630066871      -11.3043308681  MEMB      74              0.0000000000
      9881        74  POPC      H5X            25.7036879553       -0.1361395118      -11.2835265521  MEMB      74              0.0000000000
      9882        74  POPC      H5Y            24.9866840284        1.4191583665      -10.7981659055  MEMB      74              0.0000000000
      9883        74  POPC      C36            27.2725560979        1.0980546421      -10.6585481607  MEMB      74              0.0000000000
      9884        74  POPC      H6X            27.4757935722        2.0997130653      -10.2230074327  MEMB      74              0.0000000000
      9885        74  POPC      H6Y            28.0220818140        0.9125803081      -11.4573793548  MEMB      74              0.0000000000
      9886        74  POPC      C37            27.6009166906       -0.0005113885       -9.5833801176  MEMB      74              0.0000000000
      9887        74  POPC      H7X            27.3264117897       -0.9893776604      -10.0089528167  MEMB      74              0.0000000000
      9888        74  POPC      H7Y            27.0153000215        0.1170649264       -8.6466039758  MEMB      74              0.0000000000
      9889        74  POPC      C38            29.1304964261       -0.3066540394       -9.2513817595  MEMB      74              0.0000000000
      9890        74  POPC      H8X            29.7518767643       -0.5611253350      -10.1365102366  MEMB      74              0.0000000000
      9891        74  POPC      H8Y            29.1020744421       -1.1832139881       -8.5693585159  MEMB      74              0.0000000000
      9892        74  POPC      C39            29.9503358710        0.7217080052       -8.4095520759  MEMB      74              0.0000000000
      9893        74  POPC      H9X            30.2051527500        1.5894428669       -9.0548628909  MEMB      74              0.0000000000
      9894        74  POPC      H9Y            30.9063084026        0.1810279065       -8.2419140360  MEMB      74              0.0000000000
      9895        74  POPC      C310           29.2686333280        1.2073462328       -7.1078893768  MEMB      74              0.0000000000
      9896        74  POPC      H10X           28.8259446575        0.4197786005       -6.4612942422  MEMB      74              0.0000000000
      9897        74  POPC      H10Y           28.4565177807        1.9008816553       -7.4141538689  MEMB      74              0.0000000000
      9898        74  POPC      C311           30.2770827428        1.7874552890       -6.1253410774  MEMB      74              0.0000000000
      9899        74  POPC      H11X           30.9152961573        2.5031716582       -6.6863715012  MEMB      74              0.0000000000
      9900        74  POPC      H11Y           30.9257729305        0.9560808701       -5.7755720659  MEMB      74              0.0000000000
      9901        74  POPC      C312           29.6724439411        2.5809274973       -4.9325823468  MEMB      74              0.0000000000
      9902        74  POPC      H12X           29.0349819400        1.8724274412       -4.3616257850  MEMB      74              0.0000000000
      9903        74  POPC      H12Y           28.9414473533        3.2802921819       -5.3917707436  MEMB      74              0.0000000000
      9904        74  POPC      C313           30.6527742577        3.2337826271       -4.0884878487  MEMB      74              0.0000000000
      9905        74  POPC      H13X           31.0743029593        3.9569778877       -4.8189829036  MEMB      74              0.0000000000
      9906        74  POPC      H13Y           31.5587283360        2.6602429738       -3.7975914601  MEMB      74              0.0000000000
      9907        74  POPC      C314           30.1032463605        4.0748408480       -2.9262004145  MEMB      74              0.0000000000
      9908        74  POPC      H14X           30.7770972954        4.8259201838       -2.4613068823  MEMB      74              0.0000000000
      9909        74  POPC      H14Y           29.8483935198        3.3339347396       -2.1385281398  MEMB      74              0.0000000000
      9910        74  POPC      C315           28.9641298163        4.8934541281       -3.2981899745  MEMB      74              0.0000000000
      9911        74  POPC      H15X           28.1483629414        4.1469010059       -3.4054458929  MEMB      74              0.0000000000
      9912        74  POPC      H15Y           29.1362503987        5.5941711190       -4.1429932572  MEMB      74              0.0000000000
      9913        74  POPC      C316           28.3920052273        5.7960843160       -2.1242249632  MEMB      74              0.0000000000
      9914        74  POPC      H16X           27.4659809435        6.2895130240       -2.4893663218  MEMB      74              0.0000000000
      9915        74  POPC      H16Y           29.0927765841        6.6552593784       -2.0531034872  MEMB      74              0.0000000000
      9916        74  POPC      H16Z           28.3419358203        5.3908312207       -1.0909855115  MEMB      74              0.0000000000
      9917        75  POPC      N               7.9659052685      -22.5626581880      -19.9099724514  MEMB      75              0.0000000000
      9918        75  POPC      C12             9.1702781753      -22.2717889689      -19.0692194356  MEMB      75              0.0000000000
      9919        75  POPC      H12A            8.9877463863      -22.6280701838      -18.0661512098  MEMB      75              0.0000000000
      9920        75  POPC      H12B            9.3972680350      -21.2188680441      -18.9902692283  MEMB      75              0.0000000000
      9921        75  POPC      C13             7.4608325507      -24.0563672697      -19.7624569179  MEMB      75              0.0000000000
      9922        75  POPC      H13A            6.6144202878      -24.0906493645      -20.4323905440  MEMB      75              0.0000000000
      9923        75  POPC      H13B            8.2189468060      -24.7807336021      -20.0212157676  MEMB      75              0.0000000000
      9924        75  POPC      H13C            7.1760176105      -24.3615320393      -18.7663871813  MEMB      75              0.0000000000
      9925        75  POPC      C14             6.7336792689      -21.7635424102      -19.6295792255  MEMB      75              0.0000000000
      9926        75  POPC      H14A            7.0314696332      -20.7458496019      -19.4245862836  MEMB      75              0.0000000000
      9927        75  POPC      H14B            6.1213461692      -21.9307990365      -20.5033489122  MEMB      75              0.0000000000
      9928        75  POPC      H14C            6.2728387596      -22.1080515948      -18.7156101538  MEMB      75              0.0000000000
      9929        75  POPC      C15             8.3865752193      -22.3100833886      -21.3235348759  MEMB      75              0.0000000000
      9930        75  POPC      H15A            9.1079900641      -23.0523143375      -21.6318428319  MEMB      75              0.0000000000
      9931        75  POPC      H15B            8.8710097495      -21.3448379301      -21.3284617275  MEMB      75              0.0000000000
      9932        75  POPC      H15C            7.5626586305      -22.2590010103      -22.0199198033  MEMB      75              0.0000000000
      9933        75  POPC      C11            10.5257977153      -23.0558919880      -19.3827174691  MEMB      75              0.0000000000
      9934        75  POPC      H11A           11.2313657489      -22.6406775982      -18.6316570057  MEMB      75              0.0000000000
      9935        75  POPC      H11B           10.9847885173      -22.7802440211      -20.3561991755  MEMB      75              0.0000000000
      9936        75  POPC      P              10.6106905434      -25.2438310000      -17.9825843444  MEMB      75              0.0000000000
      9937        75  POPC      O13            11.9441690595      -25.0000238127      -17.3483131485  MEMB      75              0.0000000000
      9938        75  POPC      O14            10.1170782376      -26.6234000992      -18.1234210934  MEMB      75              0.0000000000
      9939        75  POPC      O12            10.5194307040      -24.4664549531      -19.3623703585  MEMB      75              0.0000000000
      9940        75  POPC      O11             9.4812066404      -24.4798830158      -17.1058306840  MEMB      75              0.0000000000
      9941        75  POPC      C1              8.4435685220      -25.1912516610      -16.4364596240  MEMB      75              0.0000000000
      9942        75  POPC      HA              8.8606435314      -25.7465622466      -15.5692804296  MEMB      75              0.0000000000
      9943        75  POPC      HB              8.0652939571      -26.0029913220      -17.0939610267  MEMB      75              0.0000000000
      9944        75  POPC      C2              7.2641264479      -24.2628767087      -15.9486572323  MEMB      75              0.0000000000
      9945        75  POPC      HS              6.9272252236      -23.6711152296      -16.8265165562  MEMB      75              0.0000000000
      9946        75  POPC      O21             7.8801597588      -23.3226372608      -14.9473910718  MEMB      75              0.0000000000
      9947        75  POPC      C21             7.1400915104      -22.4722996372      -14.3943034243  MEMB      75              0.0000000000
      9948        75  POPC      O22             5.9280409924      -22.2854555971      -14.5516229426  MEMB      75              0.0000000000
      9949        75  POPC      C22             7.8874785523      -21.5934500181      -13.4748446973  MEMB      75              0.0000000000
      9950        75  POPC      H2R             8.3866559703      -20.8156170827      -14.0913827753  MEMB      75              0.0000000000
      9951        75  POPC      H2S             8.7130864517      -22.1778128609      -13.0152658367  MEMB      75              0.0000000000
      9952        75  POPC      C3              6.0963228808      -25.1089844857      -15.3940935462  MEMB      75              0.0000000000
      9953        75  POPC      HX              5.7858104883      -25.5805522142      -16.3509251083  MEMB      75              0.0000000000
      9954        75  POPC      HY              5.2695787712      -24.4561118507      -15.0411450428  MEMB      75              0.0000000000
      9955        75  POPC      O31             6.5232161126      -26.1302010709      -14.5081363006  MEMB      75              0.0000000000
      9956        75  POPC      C31             6.5424390149      -25.9250688117      -13.1598647082  MEMB      75              0.0000000000
      9957        75  POPC      O32             5.9640861738      -25.0112962417      -12.5509359661  MEMB      75              0.0000000000
      9958        75  POPC      C32             7.3987579954      -27.0411209983      -12.5714393764  MEMB      75              0.0000000000
      9959        75  POPC      H2X             8.0157604705      -27.5941832065      -13.3115413678  MEMB      75              0.0000000000
      9960        75  POPC      H2Y             6.6915505136      -27.7855634808      -12.1471936475  MEMB      75              0.0000000000
      9961        75  POPC      C23             7.0804544976      -20.9629261792      -12.4099853556  MEMB      75              0.0000000000
      9962        75  POPC      H3R             6.4201421646      -20.2949598822      -13.0033909882  MEMB      75              0.0000000000
      9963        75  POPC      H3S             7.7523920908      -20.2671142920      -11.8634812202  MEMB      75              0.0000000000
      9964        75  POPC      C24             6.3613779780      -21.9412248799      -11.4860607340  MEMB      75              0.0000000000
      9965        75  POPC      H4R             7.0469830953      -22.7720430855      -11.2140169629  MEMB      75              0.0000000000
      9966        75  POPC      H4S             5.4782874938      -22.3510639055      -12.0213218587  MEMB      75              0.0000000000
      9967        75  POPC      C25             5.8703795919      -21.2878007575      -10.1244776991  MEMB      75              0.0000000000
      9968        75  POPC      H5R             5.3981336755      -20.3254028807      -10.4161893305  MEMB      75              0.0000000000
      9969        75  POPC      H5S             6.7618487042      -21.0219149549       -9.5170990763  MEMB      75              0.0000000000
      9970        75  POPC      C26             4.9098627730      -22.0929860460       -9.2413480674  MEMB      75              0.0000000000
      9971        75  POPC      H6R             4.0041349330      -22.1892387335       -9.8775190848  MEMB      75              0.0000000000
      9972        75  POPC      H6S             4.6124781006      -21.4855114297       -8.3599523638  MEMB      75              0.0000000000
      9973        75  POPC      C27             5.5144867329      -23.4187244981       -8.8011192569  MEMB      75              0.0000000000
      9974        75  POPC      H7R             5.5971268934      -24.0448605906       -9.7151460594  MEMB      75              0.0000000000
      9975        75  POPC      H7S             4.8480353916      -24.0274855547       -8.1533740558  MEMB      75              0.0000000000
      9976        75  POPC      C28             6.8821483864      -23.2554196985       -8.0389412992  MEMB      75              0.0000000000
      9977        75  POPC      H8R             7.5976697137      -22.5437366766       -8.5035465218  MEMB      75              0.0000000000
      9978        75  POPC      H8S             7.4128933010      -24.2301100502       -8.0900265764  MEMB      75              0.0000000000
      9979        75  POPC      C29             6.7224235381      -22.8370691718       -6.6111531729  MEMB      75              0.0000000000
      9980        75  POPC      H91             7.1334969031      -21.8298653154       -6.4481832102  MEMB      75              0.0000000000
      9981        75  POPC      C210            6.2640323593      -23.4429537719       -5.5721802520  MEMB      75              0.0000000000
      9982        75  POPC      H101            6.3889941105      -22.9701647180       -4.5868607879  MEMB      75              0.0000000000
      9983        75  POPC      C211            5.7035160625      -24.8016947612       -5.4800520953  MEMB      75              0.0000000000
      9984        75  POPC      H11R            5.8976186245      -25.3951691253       -6.3989826106  MEMB      75              0.0000000000
      9985        75  POPC      H11S            4.6272132757      -24.6023766036       -5.2898788111  MEMB      75              0.0000000000
      9986        75  POPC      C212            6.3714863919      -25.5185537813       -4.2911493310  MEMB      75              0.0000000000
      9987        75  POPC      H12R            6.5974522420      -24.7976351307       -3.4765717335  MEMB      75              0.0000000000
      9988        75  POPC      H12S            7.3621186900      -25.8095053716       -4.7014116157  MEMB      75              0.0000000000
      9989        75  POPC      C213            5.5967062270      -26.7263898377       -3.5855868308  MEMB      75              0.0000000000
      9990        75  POPC      H13R            6.3646594635      -27.1903599532       -2.9303764757  MEMB      75              0.0000000000
      9991        75  POPC      H13S            5.4036668453      -27.4596721576       -4.3975925357  MEMB      75              0.0000000000
      9992        75  POPC      C214            4.3543952755      -26.3591457332       -2.7374225414  MEMB      75              0.0000000000
      9993        75  POPC      H14R            3.6862004793      -27.2398749518       -2.8476615888  MEMB      75              0.0000000000
      9994        75  POPC      H14S            3.7434419387      -25.5491095632       -3.1900794317  MEMB      75              0.0000000000
      9995        75  POPC      C215            4.6978543247      -26.0328344101       -1.2406311830  MEMB      75              0.0000000000
      9996        75  POPC      H15R            5.4107735452      -25.2014814475       -1.0537637190  MEMB      75              0.0000000000
      9997        75  POPC      H15S            5.1001662543      -26.9685051813       -0.7967995867  MEMB      75              0.0000000000
      9998        75  POPC      C216            3.4575283539      -25.5618734909       -0.4674865458  MEMB      75              0.0000000000
      9999        75  POPC      H16R            2.6747428094      -26.3500623907       -0.4855395000  MEMB      75              0.0000000000
     10000        75  POPC      H16S            3.2101341405      -24.6935549546       -1.1148955711  MEMB      75              0.0000000000
     10001        75  POPC      C217            3.7142768397      -25.1878951620        0.9993551973  MEMB      75              0.0000000000
     10002        75  POPC      H17R            2.7182673284      -24.8818430259        1.3848639617  MEMB      75              0.0000000000
     10003        75  POPC      H17S            4.4784487413      -24.3837756393        1.0606279689  MEMB      75              0.0000000000
     10004        75  POPC      C218            4.2849960419      -26.2404678770        1.8498786750  MEMB      75              0.0000000000
     10005        75  POPC      H18R            4.0540795235      -26.1107515772        2.9288481754  MEMB      75              0.0000000000
     10006        75  POPC      H18S            5.3742366147      -26.2460432778        1.6311438574  MEMB      75              0.0000000000
     10007        75  POPC      H18T            3.8980388466      -27.2486740705        1.5889089702  MEMB      75              0.0000000000
     10008        75  POPC      C33             8.3281725903      -26.4981987678      -11.4973420474  MEMB      75              0.0000000000
     10009        75  POPC      H3X             8.9092064944      -27.3970937214      -11.1995030352  MEMB      75              0.0000000000
     10010        75  POPC      H3Y             7.8763846635      -25.8364263806      -10.7277535659  MEMB      75              0.0000000000
     10011        75  POPC      C34             9.3561590932      -25.5785313738      -12.1017561171  MEMB      75              0.0000000000
     10012        75  POPC      H4X             8.9253840160      -24.7660532675      -12.7251608158  MEMB      75              0.0000000000
     10013        75  POPC      H4Y            10.1644440185      -26.1553457170      -12.6000347124  MEMB      75              0.0000000000
     10014        75  POPC      C35            10.1534783525      -24.8109497535      -11.0384412683  MEMB      75              0.0000000000
     10015        75  POPC      H5X             9.4604648031      -24.0050328444      -10.7150974187  MEMB      75              0.0000000000
     10016        75  POPC      H5Y            11.0918819652      -24.3642116817      -11.4310539063  MEMB      75              0.0000000000
     10017        75  POPC      C36            10.4652340766      -25.6021657228       -9.6942799893  MEMB      75              0.0000000000
     10018        75  POPC      H6X            10.9148559583      -26.5535322557      -10.0507389658  MEMB      75              0.0000000000
     10019        75  POPC      H6Y             9.5375134620      -25.8374270198       -9.1300923999  MEMB      75              0.0000000000
     10020        75  POPC      C37            11.3414325155      -24.9195401620       -8.6130545437  MEMB      75              0.0000000000
     10021        75  POPC      H7X            12.2361197933      -24.6655119496       -9.2207766343  MEMB      75              0.0000000000
     10022        75  POPC      H7Y            11.8254503425      -25.4902982806       -7.7919079174  MEMB      75              0.0000000000
     10023        75  POPC      C38            10.7753413697      -23.5751483498       -8.2204327398  MEMB      75              0.0000000000
     10024        75  POPC      H8X             9.7338997641      -23.6720425673       -7.8458235735  MEMB      75              0.0000000000
     10025        75  POPC      H8Y            10.7160797433      -22.9739976997       -9.1528626164  MEMB      75              0.0000000000
     10026        75  POPC      C39            11.6952091552      -22.8200812465       -7.2137178985  MEMB      75              0.0000000000
     10027        75  POPC      H9X            11.3434160733      -21.7664672151       -7.1922673560  MEMB      75              0.0000000000
     10028        75  POPC      H9Y            12.7004886382      -22.9944605930       -7.6534067683  MEMB      75              0.0000000000
     10029        75  POPC      C310           11.7201729167      -23.4639584903       -5.7728896048  MEMB      75              0.0000000000
     10030        75  POPC      H10X           12.0504563321      -22.6599541886       -5.0809282095  MEMB      75              0.0000000000
     10031        75  POPC      H10Y           12.2645461291      -24.4321819748       -5.7957383012  MEMB      75              0.0000000000
     10032        75  POPC      C311           10.2997049535      -23.7996961712       -5.2144488956  MEMB      75              0.0000000000
     10033        75  POPC      H11X            9.8573543959      -24.6858687342       -5.7177827642  MEMB      75              0.0000000000
     10034        75  POPC      H11Y            9.7655784118      -22.8819266137       -5.5411426583  MEMB      75              0.0000000000
     10035        75  POPC      C312           10.2727906715      -23.9771181956       -3.7716463159  MEMB      75              0.0000000000
     10036        75  POPC      H12X            9.2992140830      -23.7847656319       -3.2721759386  MEMB      75              0.0000000000
     10037        75  POPC      H12Y           10.9988850257      -23.2553456922       -3.3401924984  MEMB      75              0.0000000000
     10038        75  POPC      C313           10.7546401854      -25.3502796976       -3.2431462759  MEMB      75              0.0000000000
     10039        75  POPC      H13X           11.7959699514      -25.4221306225       -3.6236597778  MEMB      75              0.0000000000
     10040        75  POPC      H13Y           10.2237744899      -26.2130719980       -3.6993173480  MEMB      75              0.0000000000
     10041        75  POPC      C314           10.7336539346      -25.5225710436       -1.6987805306  MEMB      75              0.0000000000
     10042        75  POPC      H14X           11.1653243344      -26.5274854508       -1.5035141360  MEMB      75              0.0000000000
     10043        75  POPC      H14Y            9.7106468041      -25.7950063091       -1.3617977661  MEMB      75              0.0000000000
     10044        75  POPC      C315           11.2527732512      -24.3993255374       -0.7920777125  MEMB      75              0.0000000000
     10045        75  POPC      H15X           10.7585579994      -23.4504939651       -1.0917289104  MEMB      75              0.0000000000
     10046        75  POPC      H15Y           12.3576842391      -24.3776283222       -0.9061945839  MEMB      75              0.0000000000
     10047        75  POPC      C316           10.9239599016      -24.6273867954        0.6878740719  MEMB      75              0.0000000000
     10048        75  POPC      H16X           11.8686971531      -24.5866930414        1.2710856731  MEMB      75              0.0000000000
     10049        75  POPC      H16Y           10.4979499182      -25.6410651746        0.8469089084  MEMB      75              0.0000000000
     10050        75  POPC      H16Z           10.3144899047      -23.7819263402        1.0726647874  MEMB      75              0.0000000000
     10051        76  POPC      N              -0.5675892248      -25.2510187542      -17.0323061189  MEMB      76              0.0000000000
     10052        76  POPC      C12             0.4390775478      -25.7106122121      -18.0213832660  MEMB      76              0.0000000000
     10053        76  POPC      H12A           -0.0409311945      -26.5350775186      -18.5275933340  MEMB      76              0.0000000000
     10054        76  POPC      H12B            1.3263276995      -26.0669578378      -17.5191832877  MEMB      76              0.0000000000
     10055        76  POPC      C13            -1.9225237331      -25.1383086027      -17.5564173372  MEMB      76              0.0000000000
     10056        76  POPC      H13A           -2.6213360817      -24.7117450006      -16.8520703500  MEMB      76              0.0000000000
     10057        76  POPC      H13B           -1.9408002761      -24.5807952998      -18.4812118213  MEMB      76              0.0000000000
     10058        76  POPC      H13C           -2.2088908282      -26.1721582729      -17.6811114535  MEMB      76              0.0000000000
     10059        76  POPC      C14            -0.4850046922      -26.0716965601      -15.8020345193  MEMB      76              0.0000000000
     10060        76  POPC      H14A            0.4165227839      -25.8421741882      -15.2534294304  MEMB      76              0.0000000000
     10061        76  POPC      H14B           -1.3052646613      -25.7872668227      -15.1596383117  MEMB      76              0.0000000000
     10062        76  POPC      H14C           -0.6450300241      -27.0893760836      -16.1262571663  MEMB      76              0.0000000000
     10063        76  POPC      C15            -0.0957104855      -23.9104181145      -16.5805954620  MEMB      76              0.0000000000
     10064        76  POPC      H15A           -0.0052526897      -23.2708241582      -17.4461223591  MEMB      76              0.0000000000
     10065        76  POPC      H15B            0.9228960998      -23.9641420495      -16.2256949905  MEMB      76              0.0000000000
     10066        76  POPC      H15C           -0.7371629060      -23.4146474754      -15.8670477392  MEMB      76              0.0000000000
     10067        76  POPC      C11             0.9348767429      -24.7632366405      -19.1591213272  MEMB      76              0.0000000000
     10068        76  POPC      H11A            1.3397251362      -25.4408741567      -19.9409309406  MEMB      76              0.0000000000
     10069        76  POPC      H11B            1.7111497867      -24.0191640391      -18.8796985633  MEMB      76              0.0000000000
     10070        76  POPC      P               0.0146593989      -23.1687870984      -21.0462712804  MEMB      76              0.0000000000
     10071        76  POPC      O13            -1.3060786345      -22.8613718838      -21.5636703208  MEMB      76              0.0000000000
     10072        76  POPC      O14             0.9942131654      -23.8240508203      -21.9511752616  MEMB      76              0.0000000000
     10073        76  POPC      O12            -0.1592323595      -24.0539535011      -19.7915237306  MEMB      76              0.0000000000
     10074        76  POPC      O11             0.5929669058      -21.8369456927      -20.4955013511  MEMB      76              0.0000000000
     10075        76  POPC      C1             -0.2544400197      -21.0986729207      -19.5622960757  MEMB      76              0.0000000000
     10076        76  POPC      HA             -0.1694574441      -21.7289209136      -18.6513149909  MEMB      76              0.0000000000
     10077        76  POPC      HB             -1.3179921185      -21.1612509928      -19.8773548766  MEMB      76              0.0000000000
     10078        76  POPC      C2              0.2339005060      -19.7022976498      -19.0671662863  MEMB      76              0.0000000000
     10079        76  POPC      HS              0.4315629370      -19.0270095713      -19.9269549740  MEMB      76              0.0000000000
     10080        76  POPC      O21             1.3462826900      -19.9692023549      -18.2945148011  MEMB      76              0.0000000000
     10081        76  POPC      C21             2.4948174328      -20.1756121774      -18.8242673528  MEMB      76              0.0000000000
     10082        76  POPC      O22             2.7827472579      -20.1185904535      -20.0163629706  MEMB      76              0.0000000000
     10083        76  POPC      C22             3.5934445179      -20.3048686319      -17.7667117143  MEMB      76              0.0000000000
     10084        76  POPC      H2R             4.1832977012      -19.3635744239      -17.7856841216  MEMB      76              0.0000000000
     10085        76  POPC      H2S             4.2058685205      -21.1809481086      -18.0696020839  MEMB      76              0.0000000000
     10086        76  POPC      C3             -0.9023014536      -18.9655652568      -18.2763476164  MEMB      76              0.0000000000
     10087        76  POPC      HX             -1.8334759231      -18.7813140451      -18.8536572729  MEMB      76              0.0000000000
     10088        76  POPC      HY             -0.5123810527      -17.9927094091      -17.9077902756  MEMB      76              0.0000000000
     10089        76  POPC      O31            -1.3754598661      -19.8566077218      -17.2394826697  MEMB      76              0.0000000000
     10090        76  POPC      C31            -1.5180485599      -19.4377686670      -16.0562402471  MEMB      76              0.0000000000
     10091        76  POPC      O32            -1.1471975981      -18.3661646562      -15.5415939344  MEMB      76              0.0000000000
     10092        76  POPC      C32            -2.1268549304      -20.6406524240      -15.3086044681  MEMB      76              0.0000000000
     10093        76  POPC      H2X            -2.2613029844      -21.4126069382      -16.0962151914  MEMB      76              0.0000000000
     10094        76  POPC      H2Y            -3.0734662234      -20.2885598577      -14.8457012659  MEMB      76              0.0000000000
     10095        76  POPC      C23             2.9605070685      -20.4670234607      -16.3570635690  MEMB      76              0.0000000000
     10096        76  POPC      H3R             2.3398813184      -21.3856337530      -16.2842615386  MEMB      76              0.0000000000
     10097        76  POPC      H3S             2.2307874501      -19.6360830439      -16.2504397994  MEMB      76              0.0000000000
     10098        76  POPC      C24             3.9869583095      -20.5356981810      -15.2269764977  MEMB      76              0.0000000000
     10099        76  POPC      H4R             4.5558541440      -19.5868145666      -15.1254962177  MEMB      76              0.0000000000
     10100        76  POPC      H4S             4.6877633706      -21.3877121436      -15.3583743910  MEMB      76              0.0000000000
     10101        76  POPC      C25             3.2279315453      -20.7520593338      -13.8856668338  MEMB      76              0.0000000000
     10102        76  POPC      H5R             2.5966119092      -21.6661825095      -13.8740206232  MEMB      76              0.0000000000
     10103        76  POPC      H5S             2.6131953698      -19.8712666349      -13.6017220220  MEMB      76              0.0000000000
     10104        76  POPC      C26             4.1940495738      -20.9639022192      -12.7147679118  MEMB      76              0.0000000000
     10105        76  POPC      H6R             4.9425326172      -20.1454746178      -12.7801141756  MEMB      76              0.0000000000
     10106        76  POPC      H6S             4.7023942182      -21.9513646317      -12.6860482634  MEMB      76              0.0000000000
     10107        76  POPC      C27             3.5976811104      -20.7617559682      -11.2790770377  MEMB      76              0.0000000000
     10108        76  POPC      H7R             3.3619295467      -19.6805201949      -11.1807340470  MEMB      76              0.0000000000
     10109        76  POPC      H7S             4.4363439854      -20.9604733245      -10.5780223724  MEMB      76              0.0000000000
     10110        76  POPC      C28             2.4036986436      -21.6774996364      -10.9220701700  MEMB      76              0.0000000000
     10111        76  POPC      H8R             1.6937275713      -21.5977159826      -11.7728916529  MEMB      76              0.0000000000
     10112        76  POPC      H8S             1.9748473590      -21.2879337674       -9.9741013398  MEMB      76              0.0000000000
     10113        76  POPC      C29             2.9473740837      -23.0472396776      -10.7545518318  MEMB      76              0.0000000000
     10114        76  POPC      H91             2.6262888032      -23.8393746532      -11.4469582206  MEMB      76              0.0000000000
     10115        76  POPC      C210            3.5606436157      -23.4998925620       -9.6387571694  MEMB      76              0.0000000000
     10116        76  POPC      H101            3.8124344855      -24.5702345863       -9.6076252233  MEMB      76              0.0000000000
     10117        76  POPC      C211            3.9233060958      -22.8294100428       -8.3741939538  MEMB      76              0.0000000000
     10118        76  POPC      H11R            3.3718941528      -21.8649133749       -8.3776474372  MEMB      76              0.0000000000
     10119        76  POPC      H11S            4.9960765969      -22.5533211973       -8.2889912132  MEMB      76              0.0000000000
     10120        76  POPC      C212            3.4280820233      -23.6537869431       -7.1848853629  MEMB      76              0.0000000000
     10121        76  POPC      H12R            4.1916636803      -24.4368600776       -6.9897932088  MEMB      76              0.0000000000
     10122        76  POPC      H12S            2.5027305873      -24.2426586106       -7.3617351004  MEMB      76              0.0000000000
     10123        76  POPC      C213            3.2630469738      -22.8526922624       -5.9125384957  MEMB      76              0.0000000000
     10124        76  POPC      H13R            2.2330814790      -22.4615842085       -6.0558097230  MEMB      76              0.0000000000
     10125        76  POPC      H13S            3.9878128244      -22.0108582767       -5.9312731716  MEMB      76              0.0000000000
     10126        76  POPC      C214            3.3204982124      -23.7466667792       -4.6306152402  MEMB      76              0.0000000000
     10127        76  POPC      H14R            4.2865593367      -24.2942046048       -4.5952744724  MEMB      76              0.0000000000
     10128        76  POPC      H14S            2.5058607303      -24.5006091955       -4.6781289640  MEMB      76              0.0000000000
     10129        76  POPC      C215            3.2200176458      -23.0375634270       -3.2172612569  MEMB      76              0.0000000000
     10130        76  POPC      H15R            4.0835721973      -22.3785440665       -2.9842625470  MEMB      76              0.0000000000
     10131        76  POPC      H15S            3.1269217095      -23.8443628462       -2.4591526234  MEMB      76              0.0000000000
     10132        76  POPC      C216            1.9888298596      -22.1669777299       -2.9324960655  MEMB      76              0.0000000000
     10133        76  POPC      H16R            1.1030962001      -22.8348357390       -2.9938344391  MEMB      76              0.0000000000
     10134        76  POPC      H16S            2.0159249790      -21.4889004030       -3.8121530938  MEMB      76              0.0000000000
     10135        76  POPC      C217            1.9912127548      -21.4191211293       -1.5504048919  MEMB      76              0.0000000000
     10136        76  POPC      H17R            1.1869748648      -20.6563912240       -1.4744757609  MEMB      76              0.0000000000
     10137        76  POPC      H17S            2.9396484648      -20.8495399075       -1.6522288374  MEMB      76              0.0000000000
     10138        76  POPC      C218            1.8348382706      -22.3934747664       -0.3665389808  MEMB      76              0.0000000000
     10139        76  POPC      H18R            2.6613399578      -23.1320880059       -0.2912635000  MEMB      76              0.0000000000
     10140        76  POPC      H18S            0.8500611475      -22.9076140648       -0.3805391228  MEMB      76              0.0000000000
     10141        76  POPC      H18T            1.7591234448      -21.8014830322        0.5705477514  MEMB      76              0.0000000000
     10142        76  POPC      C33            -1.3308133160      -21.1778783233      -14.0337761483  MEMB      76              0.0000000000
     10143        76  POPC      H3X            -1.1392183516      -20.3244539916      -13.3487363939  MEMB      76              0.0000000000
     10144        76  POPC      H3Y            -0.3374316196      -21.5269687760      -14.3882472641  MEMB      76              0.0000000000
     10145        76  POPC      C34            -2.0724813879      -22.2557828062      -13.1318130370  MEMB      76              0.0000000000
     10146        76  POPC      H4X            -1.7924162128      -23.1951127810      -13.6548273274  MEMB      76              0.0000000000
     10147        76  POPC      H4Y            -3.1714275847      -22.0953935114      -13.1620350645  MEMB      76              0.0000000000
     10148        76  POPC      C35            -1.5317313169      -22.1147872591      -11.6541043299  MEMB      76              0.0000000000
     10149        76  POPC      H5X            -2.0329286317      -21.2595929835      -11.1523424076  MEMB      76              0.0000000000
     10150        76  POPC      H5Y            -0.4541338776      -21.8464238793      -11.6211504230  MEMB      76              0.0000000000
     10151        76  POPC      C36            -1.7768853859      -23.3025441288      -10.7067817853  MEMB      76              0.0000000000
     10152        76  POPC      H6X            -1.4993205281      -24.2511752498      -11.2141049746  MEMB      76              0.0000000000
     10153        76  POPC      H6Y            -2.8270494165      -23.4813725165      -10.3913502298  MEMB      76              0.0000000000
     10154        76  POPC      C37            -0.9356873751      -23.3509195550       -9.4053007463  MEMB      76              0.0000000000
     10155        76  POPC      H7X             0.1096794583      -23.2082012840       -9.7533825523  MEMB      76              0.0000000000
     10156        76  POPC      H7Y            -0.9834156447      -24.3529249996       -8.9277781703  MEMB      76              0.0000000000
     10157        76  POPC      C38            -1.3993544686      -22.3410895216       -8.3435313296  MEMB      76              0.0000000000
     10158        76  POPC      H8X            -2.4388411472      -22.5074304833       -7.9883987654  MEMB      76              0.0000000000
     10159        76  POPC      H8Y            -1.5911929083      -21.3901033025       -8.8849588754  MEMB      76              0.0000000000
     10160        76  POPC      C39            -0.2957359609      -22.0316795120       -7.2164402633  MEMB      76              0.0000000000
     10161        76  POPC      H9X             0.5562365403      -21.5614725646       -7.7525090181  MEMB      76              0.0000000000
     10162        76  POPC      H9Y             0.1608448746      -22.9807649788       -6.8627578249  MEMB      76              0.0000000000
     10163        76  POPC      C310           -0.7366462684      -21.1096051745       -6.0569291809  MEMB      76              0.0000000000
     10164        76  POPC      H10X           -1.4991479047      -20.3623820379       -6.3644515621  MEMB      76              0.0000000000
     10165        76  POPC      H10Y            0.1254027623      -20.5879821469       -5.5888452931  MEMB      76              0.0000000000
     10166        76  POPC      C311           -1.4548871702      -21.9351993873       -4.9842071338  MEMB      76              0.0000000000
     10167        76  POPC      H11X           -0.9616845764      -22.9228570300       -4.8592886574  MEMB      76              0.0000000000
     10168        76  POPC      H11Y           -2.5286954561      -21.9922177007       -5.2635019385  MEMB      76              0.0000000000
     10169        76  POPC      C312           -1.3795092973      -21.0954836647       -3.6920450849  MEMB      76              0.0000000000
     10170        76  POPC      H12X           -1.9571077290      -20.1625320190       -3.8661208611  MEMB      76              0.0000000000
     10171        76  POPC      H12Y           -0.3228180331      -20.8927265400       -3.4152518182  MEMB      76              0.0000000000
     10172        76  POPC      C313           -1.9048898812      -21.9962610084       -2.5288973779  MEMB      76              0.0000000000
     10173        76  POPC      H13X           -1.0537312926      -22.6474676169       -2.2360154852  MEMB      76              0.0000000000
     10174        76  POPC      H13Y           -2.8090922134      -22.4630528018       -2.9748195782  MEMB      76              0.0000000000
     10175        76  POPC      C314           -2.1634306876      -21.2068889776       -1.2510762342  MEMB      76              0.0000000000
     10176        76  POPC      H14X           -2.8950458297      -20.3814944007       -1.3844320679  MEMB      76              0.0000000000
     10177        76  POPC      H14Y           -1.2185879478      -20.7075668289       -0.9473143192  MEMB      76              0.0000000000
     10178        76  POPC      C315           -2.8133389509      -22.1294677809       -0.2073774840  MEMB      76              0.0000000000
     10179        76  POPC      H15X           -2.8199500899      -21.4166823127        0.6448045028  MEMB      76              0.0000000000
     10180        76  POPC      H15Y           -2.1802538587      -22.9793544009        0.1261152533  MEMB      76              0.0000000000
     10181        76  POPC      C316           -4.1222800224      -22.6792177323       -0.6598617095  MEMB      76              0.0000000000
     10182        76  POPC      H16X           -4.0778193128      -23.5192745749       -1.3855673603  MEMB      76              0.0000000000
     10183        76  POPC      H16Y           -4.8179554260      -21.8554799314       -0.9278418688  MEMB      76              0.0000000000
     10184        76  POPC      H16Z           -4.6026238477      -23.0438325552        0.2732229274  MEMB      76              0.0000000000
     10185        77  POPC      N             -10.4970156291      -23.5146806970      -20.2022453964  MEMB      77              0.0000000000
     10186        77  POPC      C12           -10.2592424179      -23.8904397022      -18.7572482949  MEMB      77              0.0000000000
     10187        77  POPC      H12A          -11.2251400644      -23.8913199966      -18.2740910537  MEMB      77              0.0000000000
     10188        77  POPC      H12B           -9.5676160618      -23.2039772050      -18.2916064954  MEMB      77              0.0000000000
     10189        77  POPC      C13            -9.2488318852      -23.6635820923      -21.0298966431  MEMB      77              0.0000000000
     10190        77  POPC      H13A           -9.4222599009      -23.4033409680      -22.0636264955  MEMB      77              0.0000000000
     10191        77  POPC      H13B           -8.3851704362      -23.1775220498      -20.6006712122  MEMB      77              0.0000000000
     10192        77  POPC      H13C           -9.0125926678      -24.7172364035      -21.0499875959  MEMB      77              0.0000000000
     10193        77  POPC      C14           -11.6988754705      -24.3029293104      -20.6029705677  MEMB      77              0.0000000000
     10194        77  POPC      H14A          -11.7603726497      -25.2127095314      -20.0242496681  MEMB      77              0.0000000000
     10195        77  POPC      H14B          -12.5590989232      -23.7022057973      -20.3469493892  MEMB      77              0.0000000000
     10196        77  POPC      H14C          -11.6822222463      -24.5539458825      -21.6532625163  MEMB      77              0.0000000000
     10197        77  POPC      C15           -10.8829563369      -22.0758688031      -20.3051118830  MEMB      77              0.0000000000
     10198        77  POPC      H15A          -10.7121071252      -21.7429428824      -21.3182116262  MEMB      77              0.0000000000
     10199        77  POPC      H15B          -10.1484074685      -21.5292377022      -19.7323708721  MEMB      77              0.0000000000
     10200        77  POPC      H15C          -11.8902550398      -21.8348003528      -19.9991128302  MEMB      77              0.0000000000
     10201        77  POPC      C11            -9.7397526777      -25.3012672682      -18.4108852317  MEMB      77              0.0000000000
     10202        77  POPC      H11A          -10.3512491422      -26.0524405566      -18.9550650764  MEMB      77              0.0000000000
     10203        77  POPC      H11B           -9.8488309738      -25.5946620672      -17.3448915787  MEMB      77              0.0000000000
     10204        77  POPC      P              -7.1933031416      -25.6521299232      -17.9152393131  MEMB      77              0.0000000000
     10205        77  POPC      O13            -6.0092550573      -26.3169058369      -18.5234945487  MEMB      77              0.0000000000
     10206        77  POPC      O14            -7.6284302938      -26.3335753421      -16.6834288149  MEMB      77              0.0000000000
     10207        77  POPC      O12            -8.4442676089      -25.5186954626      -18.8900494506  MEMB      77              0.0000000000
     10208        77  POPC      O11            -6.8942043471      -24.1158102331      -17.6794298469  MEMB      77              0.0000000000
     10209        77  POPC      C1             -5.9699673124      -23.3984782957      -18.5124014747  MEMB      77              0.0000000000
     10210        77  POPC      HA             -6.5062043655      -23.0793860496      -19.4316135972  MEMB      77              0.0000000000
     10211        77  POPC      HB             -5.1804566898      -24.1102748355      -18.8354179439  MEMB      77              0.0000000000
     10212        77  POPC      C2             -5.2475172317      -22.2549179133      -17.6701919211  MEMB      77              0.0000000000
     10213        77  POPC      HS             -4.2463328602      -22.0069990654      -18.0830931327  MEMB      77              0.0000000000
     10214        77  POPC      O21            -5.1292839468      -22.5483766225      -16.2980677617  MEMB      77              0.0000000000
     10215        77  POPC      C21            -4.3747674399      -23.5509608118      -15.9204230216  MEMB      77              0.0000000000
     10216        77  POPC      O22            -3.5484611827      -24.1820068927      -16.6021877652  MEMB      77              0.0000000000
     10217        77  POPC      C22            -4.5094278037      -23.7923598597      -14.3853125646  MEMB      77              0.0000000000
     10218        77  POPC      H2R            -5.0605196354      -22.9420989179      -13.9295986884  MEMB      77              0.0000000000
     10219        77  POPC      H2S            -3.4994529762      -23.7863530883      -13.9224564475  MEMB      77              0.0000000000
     10220        77  POPC      C3             -6.0554716527      -20.9492788547      -17.7197123685  MEMB      77              0.0000000000
     10221        77  POPC      HX             -6.0774020221      -20.4281198944      -18.7006474272  MEMB      77              0.0000000000
     10222        77  POPC      HY             -5.5490309620      -20.1990192913      -17.0755467735  MEMB      77              0.0000000000
     10223        77  POPC      O31            -7.4016787390      -21.1767152645      -17.2427490678  MEMB      77              0.0000000000
     10224        77  POPC      C31            -7.6788005288      -20.8916635194      -16.0252398605  MEMB      77              0.0000000000
     10225        77  POPC      O32            -6.9533412372      -20.4010083061      -15.1683191513  MEMB      77              0.0000000000
     10226        77  POPC      C32            -9.1476101216      -21.3007636699      -15.8112060747  MEMB      77              0.0000000000
     10227        77  POPC      H2X            -9.5993865356      -21.9708860177      -16.5735415768  MEMB      77              0.0000000000
     10228        77  POPC      H2Y            -9.7308211429      -20.3577977718      -15.7404851002  MEMB      77              0.0000000000
     10229        77  POPC      C23            -5.3152053062      -25.0407445947      -13.9473398132  MEMB      77              0.0000000000
     10230        77  POPC      H3R            -4.9085910444      -25.9021002628      -14.5192246821  MEMB      77              0.0000000000
     10231        77  POPC      H3S            -6.3360045888      -24.8146836181      -14.3230867895  MEMB      77              0.0000000000
     10232        77  POPC      C24            -5.4091617594      -25.3723864501      -12.4869685438  MEMB      77              0.0000000000
     10233        77  POPC      H4R            -6.1663962846      -26.1703943653      -12.3317257140  MEMB      77              0.0000000000
     10234        77  POPC      H4S            -5.5978439795      -24.4205686885      -11.9458924057  MEMB      77              0.0000000000
     10235        77  POPC      C25            -4.1115257472      -25.8946664884      -11.8630399030  MEMB      77              0.0000000000
     10236        77  POPC      H5R            -3.4314815563      -25.0178167937      -11.9177714253  MEMB      77              0.0000000000
     10237        77  POPC      H5S            -3.7836760130      -26.5805375627      -12.6732351376  MEMB      77              0.0000000000
     10238        77  POPC      C26            -4.1796241572      -26.4518926414      -10.4517279233  MEMB      77              0.0000000000
     10239        77  POPC      H6R            -3.2232743335      -26.3666270552       -9.8927590540  MEMB      77              0.0000000000
     10240        77  POPC      H6S            -4.5169381130      -27.5097239744      -10.4908833894  MEMB      77              0.0000000000
     10241        77  POPC      C27            -5.1563320094      -25.7529790432       -9.5535251023  MEMB      77              0.0000000000
     10242        77  POPC      H7R            -6.2251248824      -26.0109733152       -9.7130299874  MEMB      77              0.0000000000
     10243        77  POPC      H7S            -5.2101614497      -24.6561926753       -9.7222939959  MEMB      77              0.0000000000
     10244        77  POPC      C28            -4.8333553062      -25.8398594780       -8.0518960804  MEMB      77              0.0000000000
     10245        77  POPC      H8R            -5.4798326218      -25.0373699037       -7.6366871820  MEMB      77              0.0000000000
     10246        77  POPC      H8S            -3.7429113952      -25.6576488078       -7.9421133646  MEMB      77              0.0000000000
     10247        77  POPC      C29            -5.0017624910      -27.2145683638       -7.3336709552  MEMB      77              0.0000000000
     10248        77  POPC      H91            -4.7028573221      -28.0815879770       -7.9410693821  MEMB      77              0.0000000000
     10249        77  POPC      C210           -5.4289696850      -27.3230457315       -6.0094799621  MEMB      77              0.0000000000
     10250        77  POPC      H101           -5.4112478838      -28.2768701726       -5.4618443484  MEMB      77              0.0000000000
     10251        77  POPC      C211           -5.8177433663      -26.1321493351       -5.1354992759  MEMB      77              0.0000000000
     10252        77  POPC      H11R           -6.5370393375      -26.4572866185       -4.3536937528  MEMB      77              0.0000000000
     10253        77  POPC      H11S           -6.4501883776      -25.4934623597       -5.7885023043  MEMB      77              0.0000000000
     10254        77  POPC      C212           -4.5635607622      -25.4755518023       -4.4251619645  MEMB      77              0.0000000000
     10255        77  POPC      H12R           -3.7425113647      -25.3980409898       -5.1696018607  MEMB      77              0.0000000000
     10256        77  POPC      H12S           -4.1052076239      -26.0600432465       -3.5989638941  MEMB      77              0.0000000000
     10257        77  POPC      C213           -4.7736214418      -24.1114497333       -3.8322512692  MEMB      77              0.0000000000
     10258        77  POPC      H13R           -5.6514593226      -24.1080692115       -3.1512879996  MEMB      77              0.0000000000
     10259        77  POPC      H13S           -5.0363948400      -23.4880447977       -4.7135210741  MEMB      77              0.0000000000
     10260        77  POPC      C214           -3.5308436571      -23.5993169802       -3.1305983485  MEMB      77              0.0000000000
     10261        77  POPC      H14R           -2.7500680888      -23.4791000171       -3.9117882118  MEMB      77              0.0000000000
     10262        77  POPC      H14S           -3.1907260782      -24.2303756928       -2.2818292953  MEMB      77              0.0000000000
     10263        77  POPC      C215           -3.7645518251      -22.1462561278       -2.7246459750  MEMB      77              0.0000000000
     10264        77  POPC      H15R           -4.0194966900      -21.5123365299       -3.6007000559  MEMB      77              0.0000000000
     10265        77  POPC      H15S           -2.8060007617      -21.7091289733       -2.3719120662  MEMB      77              0.0000000000
     10266        77  POPC      C216           -4.7557946283      -22.0725565500       -1.5495627584  MEMB      77              0.0000000000
     10267        77  POPC      H16R           -4.4499370882      -22.6349072971       -0.6415231564  MEMB      77              0.0000000000
     10268        77  POPC      H16S           -5.7263956064      -22.4370825816       -1.9487792936  MEMB      77              0.0000000000
     10269        77  POPC      C217           -5.0836944727      -20.6081633681       -1.1155417922  MEMB      77              0.0000000000
     10270        77  POPC      H17R           -5.3727222122      -20.0947040347       -2.0574253568  MEMB      77              0.0000000000
     10271        77  POPC      H17S           -4.2826208131      -20.0991471780       -0.5380439720  MEMB      77              0.0000000000
     10272        77  POPC      C218           -6.2350598343      -20.5047507441       -0.0977066746  MEMB      77              0.0000000000
     10273        77  POPC      H18R           -6.4425520434      -19.4219770339        0.0396576207  MEMB      77              0.0000000000
     10274        77  POPC      H18S           -6.0682318110      -20.9704109589        0.8971061225  MEMB      77              0.0000000000
     10275        77  POPC      H18T           -7.0921981800      -21.0347325764       -0.5654173569  MEMB      77              0.0000000000
     10276        77  POPC      C33            -9.2749193012      -21.8647007217      -14.3799244626  MEMB      77              0.0000000000
     10277        77  POPC      H3X           -10.3525629526      -22.0612372234      -14.1945094301  MEMB      77              0.0000000000
     10278        77  POPC      H3Y            -8.8420483278      -21.1904439082      -13.6103003663  MEMB      77              0.0000000000
     10279        77  POPC      C34            -8.5528898255      -23.2635798007      -14.2691632636  MEMB      77              0.0000000000
     10280        77  POPC      H4X            -7.4616296625      -23.0710533459      -14.3492008029  MEMB      77              0.0000000000
     10281        77  POPC      H4Y            -9.0058380488      -23.9214903170      -15.0413759631  MEMB      77              0.0000000000
     10282        77  POPC      C35            -8.7218410739      -23.8948025655      -12.8773714670  MEMB      77              0.0000000000
     10283        77  POPC      H5X            -7.9833341509      -24.6904651821      -12.6410460943  MEMB      77              0.0000000000
     10284        77  POPC      H5Y            -9.7204915971      -24.3218674163      -12.6436328846  MEMB      77              0.0000000000
     10285        77  POPC      C36            -8.4288500321      -22.8088900107      -11.7288061819  MEMB      77              0.0000000000
     10286        77  POPC      H6X            -9.3015832685      -22.1214028719      -11.7331620415  MEMB      77              0.0000000000
     10287        77  POPC      H6Y            -7.5399409088      -22.1570696188      -11.8677006992  MEMB      77              0.0000000000
     10288        77  POPC      C37            -8.4197598654      -23.3511995204      -10.3164973861  MEMB      77              0.0000000000
     10289        77  POPC      H7X            -7.6237564802      -24.1180671017      -10.2041875454  MEMB      77              0.0000000000
     10290        77  POPC      H7Y            -9.4243149511      -23.7954868921      -10.1497674635  MEMB      77              0.0000000000
     10291        77  POPC      C38            -8.1713001341      -22.3292714630       -9.2240789425  MEMB      77              0.0000000000
     10292        77  POPC      H8X            -8.9717090985      -21.5666806647       -9.1139805792  MEMB      77              0.0000000000
     10293        77  POPC      H8Y            -7.1722919340      -21.8446995050       -9.2627264962  MEMB      77              0.0000000000
     10294        77  POPC      C39            -8.1326704758      -23.0707823337       -7.8299672036  MEMB      77              0.0000000000
     10295        77  POPC      H9X            -7.3813230233      -23.8891791193       -7.8249914808  MEMB      77              0.0000000000
     10296        77  POPC      H9Y            -9.0834898762      -23.6257977969       -7.6808993508  MEMB      77              0.0000000000
     10297        77  POPC      C310           -7.9388846470      -22.1733809860       -6.6178323641  MEMB      77              0.0000000000
     10298        77  POPC      H10X           -8.2366253447      -21.1795467591       -7.0152804558  MEMB      77              0.0000000000
     10299        77  POPC      H10Y           -6.8816349431      -22.0665444887       -6.2935953833  MEMB      77              0.0000000000
     10300        77  POPC      C311           -8.7265464198      -22.5946387054       -5.4480714176  MEMB      77              0.0000000000
     10301        77  POPC      H11X           -8.3530753642      -23.5755351213       -5.0838149596  MEMB      77              0.0000000000
     10302        77  POPC      H11Y           -9.7946308822      -22.7831477709       -5.6888651616  MEMB      77              0.0000000000
     10303        77  POPC      C312           -8.6118234317      -21.5880703534       -4.3163418478  MEMB      77              0.0000000000
     10304        77  POPC      H12X           -9.1575776741      -20.6298504703       -4.4515752762  MEMB      77              0.0000000000
     10305        77  POPC      H12Y           -7.5433003962      -21.4334522129       -4.0542865012  MEMB      77              0.0000000000
     10306        77  POPC      C313           -9.3072748345      -22.1473164883       -3.0677186366  MEMB      77              0.0000000000
     10307        77  POPC      H13X          -10.4108546767      -22.0925010504       -3.1835973289  MEMB      77              0.0000000000
     10308        77  POPC      H13Y           -9.1209319121      -21.5217688355       -2.1686699613  MEMB      77              0.0000000000
     10309        77  POPC      C314           -8.9767682708      -23.5760928637       -2.6471814981  MEMB      77              0.0000000000
     10310        77  POPC      H14X           -7.8929592712      -23.8070246685       -2.7268660029  MEMB      77              0.0000000000
     10311        77  POPC      H14Y           -9.6454789984      -24.2405296116       -3.2351194824  MEMB      77              0.0000000000
     10312        77  POPC      C315           -9.3943483538      -23.8991088139       -1.1987926457  MEMB      77              0.0000000000
     10313        77  POPC      H15X          -10.4499296554      -23.6195016385       -0.9941256086  MEMB      77              0.0000000000
     10314        77  POPC      H15Y           -8.7841760759      -23.1807430648       -0.6106086069  MEMB      77              0.0000000000
     10315        77  POPC      C316           -9.0505116681      -25.3800896370       -0.9557851846  MEMB      77              0.0000000000
     10316        77  POPC      H16X           -7.9829480486      -25.6410057944       -1.1187315663  MEMB      77              0.0000000000
     10317        77  POPC      H16Y           -9.5648882529      -26.0051341243       -1.7167422847  MEMB      77              0.0000000000
     10318        77  POPC      H16Z           -9.2378743879      -25.7676954880        0.0684107815  MEMB      77              0.0000000000
     10319        78  POPC      N              19.7934254185      -22.5175442577      -20.6094145214  MEMB      78              0.0000000000
     10320        78  POPC      C12            18.5019038555      -21.7645235905      -20.7303563292  MEMB      78              0.0000000000
     10321        78  POPC      H12A           18.1408321823      -22.0115000745      -21.7177923237  MEMB      78              0.0000000000
     10322        78  POPC      H12B           18.6404136201      -20.7060325560      -20.5666133978  MEMB      78              0.0000000000
     10323        78  POPC      C13            19.4982418787      -24.0101434253      -20.6334219034  MEMB      78              0.0000000000
     10324        78  POPC      H13A           19.0772830819      -24.3132027124      -21.5807068813  MEMB      78              0.0000000000
     10325        78  POPC      H13B           20.4585466538      -24.4578704402      -20.4242441300  MEMB      78              0.0000000000
     10326        78  POPC      H13C           18.8304921514      -24.4096393484      -19.8844804110  MEMB      78              0.0000000000
     10327        78  POPC      C14            20.7183278478      -22.1566815384      -21.6939771241  MEMB      78              0.0000000000
     10328        78  POPC      H14A           20.8434349680      -21.0879610444      -21.7866303875  MEMB      78              0.0000000000
     10329        78  POPC      H14B           21.6850050385      -22.5883763386      -21.4804951876  MEMB      78              0.0000000000
     10330        78  POPC      H14C           20.3434108851      -22.5458012798      -22.6290830750  MEMB      78              0.0000000000
     10331        78  POPC      C15            20.2822898733      -22.1758693781      -19.2448234654  MEMB      78              0.0000000000
     10332        78  POPC      H15A           19.4890375774      -22.2837743670      -18.5199044954  MEMB      78              0.0000000000
     10333        78  POPC      H15B           20.6998087674      -21.1798398292      -19.2465635351  MEMB      78              0.0000000000
     10334        78  POPC      H15C           21.1401493307      -22.8213148259      -19.1270226460  MEMB      78              0.0000000000
     10335        78  POPC      C11            17.2309193655      -22.0951423796      -19.8772960359  MEMB      78              0.0000000000
     10336        78  POPC      H11A           16.7054289451      -22.9343091011      -20.3812603634  MEMB      78              0.0000000000
     10337        78  POPC      H11B           16.4840462984      -21.2742397104      -19.9284854848  MEMB      78              0.0000000000
     10338        78  POPC      P              16.8135559893      -22.1424401752      -17.1918678848  MEMB      78              0.0000000000
     10339        78  POPC      O13            15.3726126237      -22.2385704614      -17.4878752197  MEMB      78              0.0000000000
     10340        78  POPC      O14            17.2940507548      -20.7853897430      -16.8015765315  MEMB      78              0.0000000000
     10341        78  POPC      O12            17.5288346856      -22.6319672081      -18.5294626650  MEMB      78              0.0000000000
     10342        78  POPC      O11            17.2827391054      -23.2028408432      -16.1999283166  MEMB      78              0.0000000000
     10343        78  POPC      C1             17.4152696430      -24.5744017793      -16.5045478023  MEMB      78              0.0000000000
     10344        78  POPC      HA             18.3049737371      -24.7159674204      -17.1547069283  MEMB      78              0.0000000000
     10345        78  POPC      HB             16.5785920371      -24.9401370126      -17.1374214935  MEMB      78              0.0000000000
     10346        78  POPC      C2             17.6644546444      -25.4416675789      -15.1874748991  MEMB      78              0.0000000000
     10347        78  POPC      HS             17.2686270781      -26.4628050607      -15.3743427962  MEMB      78              0.0000000000
     10348        78  POPC      O21            16.8950212258      -24.8820978859      -14.1301415624  MEMB      78              0.0000000000
     10349        78  POPC      C21            15.5225716234      -24.8486986792      -14.2611083709  MEMB      78              0.0000000000
     10350        78  POPC      O22            14.9029765881      -25.1965718213      -15.2019618796  MEMB      78              0.0000000000
     10351        78  POPC      C22            14.8787720088      -24.3670394690      -12.9470708202  MEMB      78              0.0000000000
     10352        78  POPC      H2R            14.1809282255      -25.0860922708      -12.4671776804  MEMB      78              0.0000000000
     10353        78  POPC      H2S            14.3318801445      -23.4578455588      -13.2766116949  MEMB      78              0.0000000000
     10354        78  POPC      C3             19.1341463108      -25.5400914311      -14.7069503908  MEMB      78              0.0000000000
     10355        78  POPC      HX             19.9163832256      -25.8620329789      -15.4272142356  MEMB      78              0.0000000000
     10356        78  POPC      HY             19.2836474187      -26.0412576090      -13.7267449321  MEMB      78              0.0000000000
     10357        78  POPC      O31            19.5590693282      -24.1385177041      -14.4235561248  MEMB      78              0.0000000000
     10358        78  POPC      C31            20.2148248321      -23.3862125551      -15.3006049996  MEMB      78              0.0000000000
     10359        78  POPC      O32            20.6989060977      -23.8002951895      -16.3220113205  MEMB      78              0.0000000000
     10360        78  POPC      C32            20.3245981454      -21.9002980567      -14.8145798381  MEMB      78              0.0000000000
     10361        78  POPC      H2X            19.5435927359      -21.3087421499      -15.3384244817  MEMB      78              0.0000000000
     10362        78  POPC      H2Y            21.3395211203      -21.5424696713      -15.0906440052  MEMB      78              0.0000000000
     10363        78  POPC      C23            15.9207131717      -23.8926172357      -11.8188609599  MEMB      78              0.0000000000
     10364        78  POPC      H3R            15.4242496003      -23.4139741764      -10.9478004645  MEMB      78              0.0000000000
     10365        78  POPC      H3S            16.5496075995      -23.0838011368      -12.2485460421  MEMB      78              0.0000000000
     10366        78  POPC      C24            16.8357255293      -25.0127313808      -11.1430642175  MEMB      78              0.0000000000
     10367        78  POPC      H4R            17.3838612029      -25.6667171742      -11.8545213575  MEMB      78              0.0000000000
     10368        78  POPC      H4S            16.1043326147      -25.6685246434      -10.6241034148  MEMB      78              0.0000000000
     10369        78  POPC      C25            17.9486731746      -24.5665687128      -10.1527788467  MEMB      78              0.0000000000
     10370        78  POPC      H5R            17.5576892078      -23.9378481954       -9.3244291123  MEMB      78              0.0000000000
     10371        78  POPC      H5S            18.6801707191      -23.9662621732      -10.7349002051  MEMB      78              0.0000000000
     10372        78  POPC      C26            18.7352948769      -25.7683596655       -9.5109992374  MEMB      78              0.0000000000
     10373        78  POPC      H6R            19.3944213611      -25.2761746148       -8.7642549663  MEMB      78              0.0000000000
     10374        78  POPC      H6S            19.3328805376      -26.0445434543      -10.4059485973  MEMB      78              0.0000000000
     10375        78  POPC      C27            17.9157142675      -26.9541844938       -8.9364624120  MEMB      78              0.0000000000
     10376        78  POPC      H7R            18.6366229168      -27.7186008982       -8.5755198662  MEMB      78              0.0000000000
     10377        78  POPC      H7S            17.3409284475      -27.4146910344       -9.7682528212  MEMB      78              0.0000000000
     10378        78  POPC      C28            16.9027583933      -26.6003920532       -7.8232276557  MEMB      78              0.0000000000
     10379        78  POPC      H8R            16.5435206625      -27.6230696497       -7.5795089814  MEMB      78              0.0000000000
     10380        78  POPC      H8S            16.0759919215      -25.9991106086       -8.2582435164  MEMB      78              0.0000000000
     10381        78  POPC      C29            17.4665141350      -25.9008684862       -6.5965970556  MEMB      78              0.0000000000
     10382        78  POPC      H91            18.3323281235      -26.3865465357       -6.1228003113  MEMB      78              0.0000000000
     10383        78  POPC      C210           17.0208703462      -24.8464273836       -5.9055818384  MEMB      78              0.0000000000
     10384        78  POPC      H101           17.4987756307      -24.5759044729       -4.9524688046  MEMB      78              0.0000000000
     10385        78  POPC      C211           15.7651819336      -24.0407562319       -6.2221483053  MEMB      78              0.0000000000
     10386        78  POPC      H11R           15.7749515471      -23.7492490407       -7.2941782411  MEMB      78              0.0000000000
     10387        78  POPC      H11S           15.8835215687      -23.0625482998       -5.7088978635  MEMB      78              0.0000000000
     10388        78  POPC      C212           14.4628180194      -24.7738521587       -5.9170260967  MEMB      78              0.0000000000
     10389        78  POPC      H12R           14.3353185713      -25.6338934205       -6.6086859026  MEMB      78              0.0000000000
     10390        78  POPC      H12S           13.6674986977      -24.0729164274       -6.2494066448  MEMB      78              0.0000000000
     10391        78  POPC      C213           14.2292816891      -25.5458051745       -4.5623342096  MEMB      78              0.0000000000
     10392        78  POPC      H13R           15.1045803819      -26.2287759514       -4.5208102247  MEMB      78              0.0000000000
     10393        78  POPC      H13S           13.2862261290      -26.1035532911       -4.7464096652  MEMB      78              0.0000000000
     10394        78  POPC      C214           14.0627464094      -24.5724736411       -3.3952892507  MEMB      78              0.0000000000
     10395        78  POPC      H14R           13.2522773017      -23.8606900343       -3.6614194743  MEMB      78              0.0000000000
     10396        78  POPC      H14S           15.0217824898      -24.0256102523       -3.5198344408  MEMB      78              0.0000000000
     10397        78  POPC      C215           13.9183906948      -25.2005711295       -2.0020209513  MEMB      78              0.0000000000
     10398        78  POPC      H15R           13.0181418497      -25.8479297814       -1.9327418901  MEMB      78              0.0000000000
     10399        78  POPC      H15S           13.8763326965      -24.3746837575       -1.2600900624  MEMB      78              0.0000000000
     10400        78  POPC      C216           15.0859538756      -26.0942571119       -1.6233518962  MEMB      78              0.0000000000
     10401        78  POPC      H16R           16.0146322457      -25.4918766566       -1.7183001162  MEMB      78              0.0000000000
     10402        78  POPC      H16S           15.1314248269      -26.8654757555       -2.4217727156  MEMB      78              0.0000000000
     10403        78  POPC      C217           15.0964209176      -26.7828212725       -0.2227940606  MEMB      78              0.0000000000
     10404        78  POPC      H17R           14.2217268159      -27.4315645258       -0.0028779611  MEMB      78              0.0000000000
     10405        78  POPC      H17S           15.0000726677      -26.0288488580        0.5874912852  MEMB      78              0.0000000000
     10406        78  POPC      C218           16.3349135519      -27.6922687373        0.0312136246  MEMB      78              0.0000000000
     10407        78  POPC      H18R           16.3142517351      -28.4900935206       -0.7416822844  MEMB      78              0.0000000000
     10408        78  POPC      H18S           16.2837349517      -28.1051417130        1.0613784595  MEMB      78              0.0000000000
     10409        78  POPC      H18T           17.3046571214      -27.1638590254       -0.0900366721  MEMB      78              0.0000000000
     10410        78  POPC      C33            20.0386135581      -21.8377329589      -13.2217183025  MEMB      78              0.0000000000
     10411        78  POPC      H3X            20.8929856439      -22.2603497944      -12.6509610173  MEMB      78              0.0000000000
     10412        78  POPC      H3Y            19.1236772314      -22.4567234335      -13.1031288980  MEMB      78              0.0000000000
     10413        78  POPC      C34            19.8108575685      -20.3833631899      -12.7757367121  MEMB      78              0.0000000000
     10414        78  POPC      H4X            19.1141600478      -19.8235848757      -13.4357229513  MEMB      78              0.0000000000
     10415        78  POPC      H4Y            20.7744865103      -19.8394895683      -12.8754433886  MEMB      78              0.0000000000
     10416        78  POPC      C35            19.2145086140      -20.2252200744      -11.3578049257  MEMB      78              0.0000000000
     10417        78  POPC      H5X            18.1731317196      -20.5994752269      -11.4567406790  MEMB      78              0.0000000000
     10418        78  POPC      H5Y            19.3688056412      -19.2033430506      -10.9500296698  MEMB      78              0.0000000000
     10419        78  POPC      C36            19.9695142794      -21.1941784577      -10.3519396657  MEMB      78              0.0000000000
     10420        78  POPC      H6X            21.0368576471      -21.0447880904      -10.6217200443  MEMB      78              0.0000000000
     10421        78  POPC      H6Y            19.6902159747      -22.2467117119      -10.5721381131  MEMB      78              0.0000000000
     10422        78  POPC      C37            19.7694859026      -20.8405656368       -8.9041239481  MEMB      78              0.0000000000
     10423        78  POPC      H7X            20.1165222453      -19.7955701529       -8.7562341129  MEMB      78              0.0000000000
     10424        78  POPC      H7Y            20.4533985665      -21.3759353878       -8.2113299158  MEMB      78              0.0000000000
     10425        78  POPC      C38            18.4309818088      -20.9661350166       -8.3258011517  MEMB      78              0.0000000000
     10426        78  POPC      H8X            18.1839306569      -22.0490016880       -8.3520014971  MEMB      78              0.0000000000
     10427        78  POPC      H8Y            17.7336754436      -20.4387768640       -9.0113507684  MEMB      78              0.0000000000
     10428        78  POPC      C39            18.0280185892      -20.4431562519       -6.9573063602  MEMB      78              0.0000000000
     10429        78  POPC      H9X            17.0035693502      -20.7959134588       -6.7115681871  MEMB      78              0.0000000000
     10430        78  POPC      H9Y            17.9828407325      -19.3355812301       -7.0318574898  MEMB      78              0.0000000000
     10431        78  POPC      C310           18.8822730466      -20.9333908599       -5.7580506702  MEMB      78              0.0000000000
     10432        78  POPC      H10X           19.7594941103      -20.2556630644       -5.6839606206  MEMB      78              0.0000000000
     10433        78  POPC      H10Y           19.3374819391      -21.9270022410       -5.9576553549  MEMB      78              0.0000000000
     10434        78  POPC      C311           18.1292539480      -21.0660236442       -4.4662386320  MEMB      78              0.0000000000
     10435        78  POPC      H11X           17.3384117278      -21.8387851376       -4.3579380929  MEMB      78              0.0000000000
     10436        78  POPC      H11Y           17.5190549910      -20.1457301132       -4.3436086508  MEMB      78              0.0000000000
     10437        78  POPC      C312           19.0148464975      -21.4151375773       -3.1843902686  MEMB      78              0.0000000000
     10438        78  POPC      H12X           18.5382885803      -21.1108411234       -2.2280336743  MEMB      78              0.0000000000
     10439        78  POPC      H12Y           19.8891444693      -20.7438905139       -3.3234997343  MEMB      78              0.0000000000
     10440        78  POPC      C313           19.3308443569      -22.8663977454       -3.0084584812  MEMB      78              0.0000000000
     10441        78  POPC      H13X           19.4063248533      -23.5398314945       -3.8888615540  MEMB      78              0.0000000000
     10442        78  POPC      H13Y           18.4081749927      -23.2248858962       -2.5039891338  MEMB      78              0.0000000000
     10443        78  POPC      C314           20.4748524200      -23.1854408522       -2.0046778776  MEMB      78              0.0000000000
     10444        78  POPC      H14X           20.2939357300      -22.4422399974       -1.1989215621  MEMB      78              0.0000000000
     10445        78  POPC      H14Y           21.4409098512      -22.9609590648       -2.5053384551  MEMB      78              0.0000000000
     10446        78  POPC      C315           20.4759690476      -24.6448182394       -1.3790703291  MEMB      78              0.0000000000
     10447        78  POPC      H15X           20.8227575119      -25.4017694392       -2.1146544745  MEMB      78              0.0000000000
     10448        78  POPC      H15Y           19.3891874864      -24.8256858935       -1.2358440769  MEMB      78              0.0000000000
     10449        78  POPC      C316           21.0471793257      -24.6820769317        0.0337203652  MEMB      78              0.0000000000
     10450        78  POPC      H16X           20.8587193375      -25.6193710500        0.5996568497  MEMB      78              0.0000000000
     10451        78  POPC      H16Y           20.6261878857      -23.7824937056        0.5315533386  MEMB      78              0.0000000000
     10452        78  POPC      H16Z           22.1467316765      -24.5236031279        0.0475662326  MEMB      78              0.0000000000
     10453        79  POPC      N             -29.3856120308       11.0250065954      -20.4396057436  MEMB      79              0.0000000000
     10454        79  POPC      C12           -29.2461902127       10.9997782513      -18.8928341691  MEMB      79              0.0000000000
     10455        79  POPC      H12A          -29.8000325215       11.7871552951      -18.4032465920  MEMB      79              0.0000000000
     10456        79  POPC      H12B          -28.2278885488       11.2716642432      -18.6571653095  MEMB      79              0.0000000000
     10457        79  POPC      C13           -30.8399800235       10.9106496873      -20.7499132635  MEMB      79              0.0000000000
     10458        79  POPC      H13A          -31.3316754063       11.7885867233      -20.3576608406  MEMB      79              0.0000000000
     10459        79  POPC      H13B          -31.0117576656       10.7337576609      -21.8013893801  MEMB      79              0.0000000000
     10460        79  POPC      H13C          -31.2338992204       10.0488827126      -20.2316611366  MEMB      79              0.0000000000
     10461        79  POPC      C14           -28.7782632978       12.2949574230      -21.0253306917  MEMB      79              0.0000000000
     10462        79  POPC      H14A          -27.7504258159       12.4738466284      -20.7461374029  MEMB      79              0.0000000000
     10463        79  POPC      H14B          -28.7793615080       12.3039979919      -22.1052922856  MEMB      79              0.0000000000
     10464        79  POPC      H14C          -29.3775101838       13.1140444516      -20.6560073381  MEMB      79              0.0000000000
     10465        79  POPC      C15           -28.6279272368        9.8863747103      -21.0369112853  MEMB      79              0.0000000000
     10466        79  POPC      H15A          -27.6906127241        9.9247472059      -20.5017767326  MEMB      79              0.0000000000
     10467        79  POPC      H15B          -28.6859490828        9.9792713217      -22.1113432444  MEMB      79              0.0000000000
     10468        79  POPC      H15C          -29.1282484969        8.9926133188      -20.6944654447  MEMB      79              0.0000000000
     10469        79  POPC      C11           -29.6125817515        9.6337108916      -18.2043190381  MEMB      79              0.0000000000
     10470        79  POPC      H11A          -30.5761593410        9.2505663951      -18.6031165376  MEMB      79              0.0000000000
     10471        79  POPC      H11B          -29.8284672792        9.6798686381      -17.1154738500  MEMB      79              0.0000000000
     10472        79  POPC      P             -27.1988693533        8.6755652392      -17.7459168961  MEMB      79              0.0000000000
     10473        79  POPC      O13           -26.1564813021        8.8507004320      -18.7801153265  MEMB      79              0.0000000000
     10474        79  POPC      O14           -27.0623830555        7.5210484058      -16.8617121662  MEMB      79              0.0000000000
     10475        79  POPC      O12           -28.5703001510        8.6732041127      -18.4531521021  MEMB      79              0.0000000000
     10476        79  POPC      O11           -27.3641770077        9.8628511916      -16.8101893221  MEMB      79              0.0000000000
     10477        79  POPC      C1            -26.4255032436       10.1720028425      -15.7596871662  MEMB      79              0.0000000000
     10478        79  POPC      HA            -26.0705901140       11.2158490684      -15.8965918606  MEMB      79              0.0000000000
     10479        79  POPC      HB            -25.5876303098        9.4460714646      -15.8325819287  MEMB      79              0.0000000000
     10480        79  POPC      C2            -27.0410843662       10.1400355171      -14.3019318415  MEMB      79              0.0000000000
     10481        79  POPC      HS            -26.3085468909       10.6275687097      -13.6236832314  MEMB      79              0.0000000000
     10482        79  POPC      O21           -27.3936546983        8.7810629382      -13.8221209836  MEMB      79              0.0000000000
     10483        79  POPC      C21           -26.4595831962        8.0333196648      -13.2113814768  MEMB      79              0.0000000000
     10484        79  POPC      O22           -25.3700490352        8.4739685114      -12.9391045883  MEMB      79              0.0000000000
     10485        79  POPC      C22           -26.9922100071        6.5946788225      -12.9571382356  MEMB      79              0.0000000000
     10486        79  POPC      H2R           -26.9205908714        6.0598338401      -13.9282884452  MEMB      79              0.0000000000
     10487        79  POPC      H2S           -28.0373988625        6.6850839802      -12.5914497867  MEMB      79              0.0000000000
     10488        79  POPC      C3            -28.3468794830       11.0110602205      -14.3101650439  MEMB      79              0.0000000000
     10489        79  POPC      HX            -29.2804879916       10.5319448741      -14.6750548690  MEMB      79              0.0000000000
     10490        79  POPC      HY            -27.9777825726       11.8245299852      -14.9707372446  MEMB      79              0.0000000000
     10491        79  POPC      O31           -28.5630802014       11.6764242459      -13.0567080434  MEMB      79              0.0000000000
     10492        79  POPC      C31           -29.3450949198       11.1255235431      -12.0951051511  MEMB      79              0.0000000000
     10493        79  POPC      O32           -29.9080957084       10.0759330622      -12.1994891989  MEMB      79              0.0000000000
     10494        79  POPC      C32           -29.3299725870       12.0413646245      -10.8683236176  MEMB      79              0.0000000000
     10495        79  POPC      H2X           -28.7040082542       12.9482851951      -11.0096909624  MEMB      79              0.0000000000
     10496        79  POPC      H2Y           -28.9540923823       11.4468102916      -10.0083578727  MEMB      79              0.0000000000
     10497        79  POPC      C23           -26.0883942631        5.8766497630      -11.8539289425  MEMB      79              0.0000000000
     10498        79  POPC      H3R           -25.0066042333        5.9319452204      -12.1008982258  MEMB      79              0.0000000000
     10499        79  POPC      H3S           -26.5928082916        4.8874734635      -11.8915838489  MEMB      79              0.0000000000
     10500        79  POPC      C24           -26.4047286467        6.4924503226      -10.4760621479  MEMB      79              0.0000000000
     10501        79  POPC      H4R           -27.4960802571        6.5969839009      -10.2962144261  MEMB      79              0.0000000000
     10502        79  POPC      H4S           -26.1481774211        7.5730087138      -10.5059897126  MEMB      79              0.0000000000
     10503        79  POPC      C25           -25.8803929913        5.7435131253       -9.2166141433  MEMB      79              0.0000000000
     10504        79  POPC      H5R           -24.8350474070        5.4158647391       -9.4016023416  MEMB      79              0.0000000000
     10505        79  POPC      H5S           -26.4656447313        4.8047108383       -9.1143802334  MEMB      79              0.0000000000
     10506        79  POPC      C26           -25.9212746915        6.6109959757       -7.9807709806  MEMB      79              0.0000000000
     10507        79  POPC      H6R           -26.3398678547        6.1040313245       -7.0851776260  MEMB      79              0.0000000000
     10508        79  POPC      H6S           -26.6636361336        7.3882485325       -8.2620165037  MEMB      79              0.0000000000
     10509        79  POPC      C27           -24.5092728778        7.2275667626       -7.6746699737  MEMB      79              0.0000000000
     10510        79  POPC      H7R           -24.1957719958        7.8795585943       -8.5178455296  MEMB      79              0.0000000000
     10511        79  POPC      H7S           -23.6863087201        6.4812147014       -7.6715704476  MEMB      79              0.0000000000
     10512        79  POPC      C28           -24.4154784455        8.1424556674       -6.4686879043  MEMB      79              0.0000000000
     10513        79  POPC      H8R           -25.1665504149        8.9519593827       -6.5908165797  MEMB      79              0.0000000000
     10514        79  POPC      H8S           -23.3697063801        8.4985383624       -6.5865297140  MEMB      79              0.0000000000
     10515        79  POPC      C29           -24.6234901366        7.4252588766       -5.1208213300  MEMB      79              0.0000000000
     10516        79  POPC      H91           -23.6724997510        6.9767774432       -4.7975853662  MEMB      79              0.0000000000
     10517        79  POPC      C210          -25.7614991152        7.3997331485       -4.4579156743  MEMB      79              0.0000000000
     10518        79  POPC      H101          -25.7997541274        6.7577170746       -3.5655294384  MEMB      79              0.0000000000
     10519        79  POPC      C211          -27.1217574706        7.9856509264       -4.8258473753  MEMB      79              0.0000000000
     10520        79  POPC      H11R          -27.1897891728        8.1568014439       -5.9214749395  MEMB      79              0.0000000000
     10521        79  POPC      H11S          -27.3736389314        8.9257726320       -4.2900780669  MEMB      79              0.0000000000
     10522        79  POPC      C212          -28.2327066011        7.0099369434       -4.2868445001  MEMB      79              0.0000000000
     10523        79  POPC      H12R          -28.0783395530        6.7544812191       -3.2166882418  MEMB      79              0.0000000000
     10524        79  POPC      H12S          -28.1648958874        6.0631146449       -4.8641223884  MEMB      79              0.0000000000
     10525        79  POPC      C213          -29.5759223086        7.7258735959       -4.4212618599  MEMB      79              0.0000000000
     10526        79  POPC      H13R          -30.3665121285        7.0251066889       -4.7650854731  MEMB      79              0.0000000000
     10527        79  POPC      H13S          -29.5032422910        8.5467091620       -5.1664246419  MEMB      79              0.0000000000
     10528        79  POPC      C214          -30.1313735651        8.2886972818       -3.0660694939  MEMB      79              0.0000000000
     10529        79  POPC      H14R          -29.4989097283        9.0998332284       -2.6461072878  MEMB      79              0.0000000000
     10530        79  POPC      H14S          -30.3406944840        7.4716089193       -2.3429700571  MEMB      79              0.0000000000
     10531        79  POPC      C215          -31.4844432886        8.8877745786       -3.3716388838  MEMB      79              0.0000000000
     10532        79  POPC      H15R          -31.9751805512        8.0915758878       -3.9712771868  MEMB      79              0.0000000000
     10533        79  POPC      H15S          -31.3269336709        9.6934098639       -4.1202803203  MEMB      79              0.0000000000
     10534        79  POPC      C216          -32.2408919060        9.4021057786       -2.1044196676  MEMB      79              0.0000000000
     10535        79  POPC      H16R          -31.5475842972        9.7996119769       -1.3326455479  MEMB      79              0.0000000000
     10536        79  POPC      H16S          -32.7454106425        8.5599855429       -1.5842125044  MEMB      79              0.0000000000
     10537        79  POPC      C217          -33.4257091037       10.3524309582       -2.4448337842  MEMB      79              0.0000000000
     10538        79  POPC      H17R          -34.1347509656       10.2470577897       -1.5960241672  MEMB      79              0.0000000000
     10539        79  POPC      H17S          -34.0779986710       10.0107602050       -3.2767597974  MEMB      79              0.0000000000
     10540        79  POPC      C218          -32.9886071974       11.7633015454       -2.7157771297  MEMB      79              0.0000000000
     10541        79  POPC      H18R          -33.8431451445       12.3940747318       -2.3898748794  MEMB      79              0.0000000000
     10542        79  POPC      H18S          -32.8132440277       12.0307087274       -3.7797601780  MEMB      79              0.0000000000
     10543        79  POPC      H18T          -32.1094931127       12.0434304212       -2.0969010335  MEMB      79              0.0000000000
     10544        79  POPC      C33           -30.8179256940       12.4160273696      -10.5045570355  MEMB      79              0.0000000000
     10545        79  POPC      H3X           -31.4307265491       11.4894919308      -10.5226721827  MEMB      79              0.0000000000
     10546        79  POPC      H3Y           -31.2744810375       13.0931266543      -11.2578265607  MEMB      79              0.0000000000
     10547        79  POPC      C34           -30.9976713363       13.0617050652       -9.1497326572  MEMB      79              0.0000000000
     10548        79  POPC      H4X           -32.0773029417       13.2684894407       -8.9886224219  MEMB      79              0.0000000000
     10549        79  POPC      H4Y           -30.6423380483       14.0862276226       -9.3914199634  MEMB      79              0.0000000000
     10550        79  POPC      C35           -30.3669301495       12.3982524384       -7.9070393837  MEMB      79              0.0000000000
     10551        79  POPC      H5X           -29.3461657222       12.0277285924       -8.1417154545  MEMB      79              0.0000000000
     10552        79  POPC      H5Y           -30.9869199555       11.4781951945       -7.8484885686  MEMB      79              0.0000000000
     10553        79  POPC      C36           -30.2788806259       13.3587897423       -6.7568526412  MEMB      79              0.0000000000
     10554        79  POPC      H6X           -31.3262452927       13.6364718513       -6.5114127469  MEMB      79              0.0000000000
     10555        79  POPC      H6Y           -29.6831346732       14.2328963994       -7.0964783066  MEMB      79              0.0000000000
     10556        79  POPC      C37           -29.6950190471       12.6681359744       -5.4678825403  MEMB      79              0.0000000000
     10557        79  POPC      H7X           -28.9750635811       11.9500834309       -5.9155274634  MEMB      79              0.0000000000
     10558        79  POPC      H7Y           -30.4611957611       12.0179414462       -4.9940246482  MEMB      79              0.0000000000
     10559        79  POPC      C38           -28.9807256819       13.6352240378       -4.5529766605  MEMB      79              0.0000000000
     10560        79  POPC      H8X           -29.6704840260       14.3426876433       -4.0449904186  MEMB      79              0.0000000000
     10561        79  POPC      H8Y           -28.1847706609       14.1754401787       -5.1088033202  MEMB      79              0.0000000000
     10562        79  POPC      C39           -28.1922814423       12.8961998414       -3.4334653671  MEMB      79              0.0000000000
     10563        79  POPC      H9X           -28.7961116231       12.3954022040       -2.6467545350  MEMB      79              0.0000000000
     10564        79  POPC      H9Y           -27.7017929496       13.7287787558       -2.8852365789  MEMB      79              0.0000000000
     10565        79  POPC      C310          -27.2493668559       11.7609559667       -3.7841874012  MEMB      79              0.0000000000
     10566        79  POPC      H10X          -26.7086298051       12.0528184594       -4.7097901660  MEMB      79              0.0000000000
     10567        79  POPC      H10Y          -27.7962760759       10.8556153710       -4.1241428342  MEMB      79              0.0000000000
     10568        79  POPC      C311          -26.0977603045       11.4196248702       -2.8142206692  MEMB      79              0.0000000000
     10569        79  POPC      H11X          -25.3719026034       12.2524500306       -2.6965168405  MEMB      79              0.0000000000
     10570        79  POPC      H11Y          -25.5763482122       10.5984260141       -3.3509543636  MEMB      79              0.0000000000
     10571        79  POPC      C312          -26.5486451724       10.7886342153       -1.5235929838  MEMB      79              0.0000000000
     10572        79  POPC      H12X          -27.6110077146       10.4642443999       -1.5454567712  MEMB      79              0.0000000000
     10573        79  POPC      H12Y          -26.5592681293       11.5428532077       -0.7078955453  MEMB      79              0.0000000000
     10574        79  POPC      C313          -25.7818021791        9.5363116662       -1.1349578154  MEMB      79              0.0000000000
     10575        79  POPC      H13X          -24.7160171948        9.8500235174       -1.1377928698  MEMB      79              0.0000000000
     10576        79  POPC      H13Y          -25.7506489698        8.7178084275       -1.8855585239  MEMB      79              0.0000000000
     10577        79  POPC      C314          -26.2082988187        9.0377058905        0.2513621199  MEMB      79              0.0000000000
     10578        79  POPC      H14X          -27.2649874611        8.6976626863        0.2055294860  MEMB      79              0.0000000000
     10579        79  POPC      H14Y          -26.2721838844        9.9376892053        0.8996434739  MEMB      79              0.0000000000
     10580        79  POPC      C315          -25.5606541361        7.7709113261        0.8059914782  MEMB      79              0.0000000000
     10581        79  POPC      H15X          -25.5782444010        7.5809835130        1.9004962742  MEMB      79              0.0000000000
     10582        79  POPC      H15Y          -24.4782007092        7.8399683204        0.5654788690  MEMB      79              0.0000000000
     10583        79  POPC      C316          -26.0584993387        6.4411530644        0.2213903532  MEMB      79              0.0000000000
     10584        79  POPC      H16X          -25.9653120777        6.1688598502       -0.8516869243  MEMB      79              0.0000000000
     10585        79  POPC      H16Y          -27.1500394321        6.3035970096        0.3761158264  MEMB      79              0.0000000000
     10586        79  POPC      H16Z          -25.5476835674        5.5995611030        0.7362793684  MEMB      79              0.0000000000
     10587        80  POPC      N              25.4642939663       18.0907331046      -20.0580904772  MEMB      80              0.0000000000
     10588        80  POPC      C12            25.3230056384       17.9633676708      -18.5187627044  MEMB      80              0.0000000000
     10589        80  POPC      H12A           24.3045248674       17.8994779683      -18.1651876589  MEMB      80              0.0000000000
     10590        80  POPC      H12B           25.9169479987       18.8104278937      -18.2087284118  MEMB      80              0.0000000000
     10591        80  POPC      C13            24.7431186251       16.9963927381      -20.7917618760  MEMB      80              0.0000000000
     10592        80  POPC      H13A           25.1174028504       16.0285907891      -20.4923112380  MEMB      80              0.0000000000
     10593        80  POPC      H13B           23.7094600456       16.9580618093      -20.4811480575  MEMB      80              0.0000000000
     10594        80  POPC      H13C           24.8394899174       17.1636929904      -21.8543640053  MEMB      80              0.0000000000
     10595        80  POPC      C14            24.7788459358       19.2811439578      -20.4050454780  MEMB      80              0.0000000000
     10596        80  POPC      H14A           23.7066898709       19.2671232761      -20.2758740292  MEMB      80              0.0000000000
     10597        80  POPC      H14B           25.2059306551       20.1470042874      -19.9210162140  MEMB      80              0.0000000000
     10598        80  POPC      H14C           24.8809749074       19.4561295842      -21.4658704429  MEMB      80              0.0000000000
     10599        80  POPC      C15            26.8322538777       18.2069541962      -20.4962439279  MEMB      80              0.0000000000
     10600        80  POPC      H15A           26.8158656971       18.5897590197      -21.5059924293  MEMB      80              0.0000000000
     10601        80  POPC      H15B           27.3031776545       17.2428324832      -20.3733611060  MEMB      80              0.0000000000
     10602        80  POPC      H15C           27.3751150344       18.8596709105      -19.8286643904  MEMB      80              0.0000000000
     10603        80  POPC      C11            26.0186954466       16.7912199673      -17.7799445363  MEMB      80              0.0000000000
     10604        80  POPC      H11A           25.6176962271       16.9944967614      -16.7639725416  MEMB      80              0.0000000000
     10605        80  POPC      H11B           27.1084633365       17.0059845917      -17.8045015605  MEMB      80              0.0000000000
     10606        80  POPC      P              26.9220948966       14.4438622629      -18.2604216645  MEMB      80              0.0000000000
     10607        80  POPC      O13            27.8850311468       14.8523470526      -19.3023587235  MEMB      80              0.0000000000
     10608        80  POPC      O14            26.3771891795       13.1067535720      -18.3774370242  MEMB      80              0.0000000000
     10609        80  POPC      O12            25.6966038454       15.4375044466      -18.2044361378  MEMB      80              0.0000000000
     10610        80  POPC      O11            27.6369350472       14.6950451303      -16.8054974501  MEMB      80              0.0000000000
     10611        80  POPC      C1             27.1247189025       14.0763896812      -15.6314973077  MEMB      80              0.0000000000
     10612        80  POPC      HA             27.7542526644       13.2305999843      -15.2812855440  MEMB      80              0.0000000000
     10613        80  POPC      HB             26.0884752860       13.6840776617      -15.7128066335  MEMB      80              0.0000000000
     10614        80  POPC      C2             27.0561953093       15.1442349744      -14.5474398254  MEMB      80              0.0000000000
     10615        80  POPC      HS             26.5650818380       16.0176848806      -15.0272458742  MEMB      80              0.0000000000
     10616        80  POPC      O21            28.3611100887       15.4084712976      -14.1912447068  MEMB      80              0.0000000000
     10617        80  POPC      C21            28.6330027375       16.6892833214      -13.7631446090  MEMB      80              0.0000000000
     10618        80  POPC      O22            27.9175227955       17.6502224914      -13.9354811820  MEMB      80              0.0000000000
     10619        80  POPC      C22            30.0386801265       16.6900947904      -13.1385255741  MEMB      80              0.0000000000
     10620        80  POPC      H2R            30.6595764671       17.2618083574      -13.8609881558  MEMB      80              0.0000000000
     10621        80  POPC      H2S            30.4582635175       15.6679931116      -13.0219972693  MEMB      80              0.0000000000
     10622        80  POPC      C3             26.2790344330       14.6047220132      -13.3359329912  MEMB      80              0.0000000000
     10623        80  POPC      HX             27.0763778922       13.9401036813      -12.9398938138  MEMB      80              0.0000000000
     10624        80  POPC      HY             25.3556448465       14.0393713581      -13.5850339021  MEMB      80              0.0000000000
     10625        80  POPC      O31            26.0104236584       15.6544564928      -12.4648302049  MEMB      80              0.0000000000
     10626        80  POPC      C31            24.8435041156       16.2905148935      -12.4544195088  MEMB      80              0.0000000000
     10627        80  POPC      O32            23.8707526284       15.9877377332      -13.1505892468  MEMB      80              0.0000000000
     10628        80  POPC      C32            24.8383212625       17.3283629669      -11.3622477344  MEMB      80              0.0000000000
     10629        80  POPC      H2X            24.0359612874       18.0763352055      -11.5385338881  MEMB      80              0.0000000000
     10630        80  POPC      H2Y            25.8003775173       17.8816209583      -11.4139611122  MEMB      80              0.0000000000
     10631        80  POPC      C23            30.0399838803       17.5096020369      -11.7820895749  MEMB      80              0.0000000000
     10632        80  POPC      H3R            29.2443371576       17.1779017546      -11.0812028096  MEMB      80              0.0000000000
     10633        80  POPC      H3S            29.8161077049       18.5640223680      -12.0511590469  MEMB      80              0.0000000000
     10634        80  POPC      C24            31.3308308674       17.4572340626      -11.0225081914  MEMB      80              0.0000000000
     10635        80  POPC      H4R            31.9224879673       18.2550152098      -11.5203116452  MEMB      80              0.0000000000
     10636        80  POPC      H4S            31.8409201348       16.4849093962      -11.1919603009  MEMB      80              0.0000000000
     10637        80  POPC      C25            31.3087659506       17.5941426867       -9.5200755611  MEMB      80              0.0000000000
     10638        80  POPC      H5R            30.8073055381       18.5139423317       -9.1501744259  MEMB      80              0.0000000000
     10639        80  POPC      H5S            32.3603845569       17.6606254674       -9.1679398131  MEMB      80              0.0000000000
     10640        80  POPC      C26            30.7811377857       16.2940476579       -8.8423297055  MEMB      80              0.0000000000
     10641        80  POPC      H6R            31.4265794001       15.4597455292       -9.1911363761  MEMB      80              0.0000000000
     10642        80  POPC      H6S            29.6895897726       16.2285918979       -9.0386959201  MEMB      80              0.0000000000
     10643        80  POPC      C27            30.8492726342       16.5273760586       -7.3007639002  MEMB      80              0.0000000000
     10644        80  POPC      H7R            31.8970863583       16.8102210783       -7.0632640716  MEMB      80              0.0000000000
     10645        80  POPC      H7S            30.5732606770       15.5477370766       -6.8552912387  MEMB      80              0.0000000000
     10646        80  POPC      C28            29.8456967418       17.5320575254       -6.7446793842  MEMB      80              0.0000000000
     10647        80  POPC      H8R            28.8397123315       17.3329400976       -7.1720769857  MEMB      80              0.0000000000
     10648        80  POPC      H8S            30.1407472295       18.5562307723       -7.0582639138  MEMB      80              0.0000000000
     10649        80  POPC      C29            29.7625856647       17.4358933389       -5.2219396296  MEMB      80              0.0000000000
     10650        80  POPC      H91            30.7499499989       17.3119362650       -4.7531683747  MEMB      80              0.0000000000
     10651        80  POPC      C210           28.7100189410       17.6296473413       -4.4159788374  MEMB      80              0.0000000000
     10652        80  POPC      H101           28.7467646550       17.4160740382       -3.3375371092  MEMB      80              0.0000000000
     10653        80  POPC      C211           27.3117529386       17.9930451362       -5.0987560887  MEMB      80              0.0000000000
     10654        80  POPC      H11R           26.4944322906       17.3304621852       -4.7419758882  MEMB      80              0.0000000000
     10655        80  POPC      H11S           27.2877769961       17.8837183840       -6.2041039734  MEMB      80              0.0000000000
     10656        80  POPC      C212           26.9673893581       19.4355483083       -4.7030002330  MEMB      80              0.0000000000
     10657        80  POPC      H12R           27.7811717957       20.0946246835       -5.0740767076  MEMB      80              0.0000000000
     10658        80  POPC      H12S           26.9788655894       19.6536961357       -3.6136883373  MEMB      80              0.0000000000
     10659        80  POPC      C213           25.7077406837       20.0647520472       -5.3206807933  MEMB      80              0.0000000000
     10660        80  POPC      H13R           25.6628152667       19.6486187561       -6.3498238218  MEMB      80              0.0000000000
     10661        80  POPC      H13S           25.7563418395       21.1691106237       -5.2095457165  MEMB      80              0.0000000000
     10662        80  POPC      C214           24.3976727736       19.6282021791       -4.5913530399  MEMB      80              0.0000000000
     10663        80  POPC      H14R           24.3605105644       18.5214342553       -4.5018844044  MEMB      80              0.0000000000
     10664        80  POPC      H14S           23.5003654068       19.8020075263       -5.2229800666  MEMB      80              0.0000000000
     10665        80  POPC      C215           24.2680159947       20.2830055373       -3.2160247483  MEMB      80              0.0000000000
     10666        80  POPC      H15R           23.9018189437       21.3266533151       -3.1110453937  MEMB      80              0.0000000000
     10667        80  POPC      H15S           25.2543565430       20.2739553525       -2.7047799485  MEMB      80              0.0000000000
     10668        80  POPC      C216           23.1466164814       19.4840355680       -2.5428566438  MEMB      80              0.0000000000
     10669        80  POPC      H16R           23.3965595286       18.4022497527       -2.5029983908  MEMB      80              0.0000000000
     10670        80  POPC      H16S           22.3472426308       19.6500021424       -3.2963661606  MEMB      80              0.0000000000
     10671        80  POPC      C217           22.6309314982       19.8904040260       -1.1261831317  MEMB      80              0.0000000000
     10672        80  POPC      H17R           21.9181410527       19.1440061767       -0.7149144443  MEMB      80              0.0000000000
     10673        80  POPC      H17S           22.1778134345       20.8937110950       -1.2757815850  MEMB      80              0.0000000000
     10674        80  POPC      C218           23.7862485059       20.0065195629       -0.1300605498  MEMB      80              0.0000000000
     10675        80  POPC      H18R           24.7018543544       20.1500970089       -0.7427365115  MEMB      80              0.0000000000
     10676        80  POPC      H18S           23.7792524138       19.1456179337        0.5721649138  MEMB      80              0.0000000000
     10677        80  POPC      H18T           23.6108842225       20.9913101639        0.3534229120  MEMB      80              0.0000000000
     10678        80  POPC      C33            24.8637035561       16.6296551657       -9.9377792683  MEMB      80              0.0000000000
     10679        80  POPC      H3X            24.0275041883       15.9035101809      -10.0261258062  MEMB      80              0.0000000000
     10680        80  POPC      H3Y            24.4629234655       17.3526345546       -9.1954874020  MEMB      80              0.0000000000
     10681        80  POPC      C34            26.1617580956       15.9648942195       -9.4586881129  MEMB      80              0.0000000000
     10682        80  POPC      H4X            27.0596958580       16.6136255736       -9.3739744346  MEMB      80              0.0000000000
     10683        80  POPC      H4Y            26.5193165049       15.1764393551      -10.1549729374  MEMB      80              0.0000000000
     10684        80  POPC      C35            26.0569542653       15.1558248450       -8.1414685800  MEMB      80              0.0000000000
     10685        80  POPC      H5X            25.0694142263       14.6492300090       -8.0919967852  MEMB      80              0.0000000000
     10686        80  POPC      H5Y            25.8461395045       15.7078219397       -7.2006304492  MEMB      80              0.0000000000
     10687        80  POPC      C36            27.2296746551       14.1846259081       -8.0015540570  MEMB      80              0.0000000000
     10688        80  POPC      H6X            28.1351555517       14.8282004519       -8.0169592288  MEMB      80              0.0000000000
     10689        80  POPC      H6Y            27.0427203218       13.5665739443       -8.9056448859  MEMB      80              0.0000000000
     10690        80  POPC      C37            27.2050793316       13.1706787105       -6.9367978071  MEMB      80              0.0000000000
     10691        80  POPC      H7X            28.0935770791       12.5257750636       -7.1070675158  MEMB      80              0.0000000000
     10692        80  POPC      H7Y            26.2476821548       12.6077022459       -6.9090525251  MEMB      80              0.0000000000
     10693        80  POPC      C38            27.4815713885       13.7717006658       -5.6079939272  MEMB      80              0.0000000000
     10694        80  POPC      H8X            26.7889128139       14.6136864118       -5.3944403690  MEMB      80              0.0000000000
     10695        80  POPC      H8Y            28.5135099209       14.1606291857       -5.7427467701  MEMB      80              0.0000000000
     10696        80  POPC      C39            27.3185237608       12.7528178997       -4.5560873421  MEMB      80              0.0000000000
     10697        80  POPC      H9X            28.2810500266       12.2000201531       -4.5083500199  MEMB      80              0.0000000000
     10698        80  POPC      H9Y            26.5962655757       11.9652951044       -4.8601789791  MEMB      80              0.0000000000
     10699        80  POPC      C310           26.9897728252       13.3338774472       -3.1911695547  MEMB      80              0.0000000000
     10700        80  POPC      H10X           26.1464076956       14.0449220100       -3.3233507793  MEMB      80              0.0000000000
     10701        80  POPC      H10Y           27.8865749397       13.9079512976       -2.8741419515  MEMB      80              0.0000000000
     10702        80  POPC      C311           26.7608210133       12.2102606059       -2.2351655414  MEMB      80              0.0000000000
     10703        80  POPC      H11X           27.6271969929       11.5188639633       -2.1597689960  MEMB      80              0.0000000000
     10704        80  POPC      H11Y           25.8373991276       11.6104443207       -2.3829246910  MEMB      80              0.0000000000
     10705        80  POPC      C312           26.6477268930       12.8116357614       -0.8123891310  MEMB      80              0.0000000000
     10706        80  POPC      H12X           27.6091916590       13.3247681198       -0.5965164172  MEMB      80              0.0000000000
     10707        80  POPC      H12Y           26.5775633900       11.9212472783       -0.1516274965  MEMB      80              0.0000000000
     10708        80  POPC      C313           25.6142366111       13.9254124447       -0.4845979047  MEMB      80              0.0000000000
     10709        80  POPC      H13X           24.6423194077       13.5151969223       -0.8330520571  MEMB      80              0.0000000000
     10710        80  POPC      H13Y           25.7185600714       14.8245495487       -1.1287950185  MEMB      80              0.0000000000
     10711        80  POPC      C314           25.3340426214       14.4684429949        0.9212713938  MEMB      80              0.0000000000
     10712        80  POPC      H14X           24.6637578747       13.8622143785        1.5674344081  MEMB      80              0.0000000000
     10713        80  POPC      H14Y           24.7970880972       15.3913813034        0.6143750897  MEMB      80              0.0000000000
     10714        80  POPC      C315           26.5631431100       14.8580820572        1.8199386780  MEMB      80              0.0000000000
     10715        80  POPC      H15X           27.0953428461       13.8908600303        1.9447022977  MEMB      80              0.0000000000
     10716        80  POPC      H15Y           26.2640868322       15.2527494944        2.8144856243  MEMB      80              0.0000000000
     10717        80  POPC      C316           27.6207224861       15.7938622386        1.2999722205  MEMB      80              0.0000000000
     10718        80  POPC      H16X           27.2508591958       16.8045010312        1.0240528330  MEMB      80              0.0000000000
     10719        80  POPC      H16Y           28.2276630807       15.3347950766        0.4905270803  MEMB      80              0.0000000000
     10720        80  POPC      H16Z           28.2608527554       16.1356762828        2.1412316308  MEMB      80              0.0000000000
     10721        81  POPC      N              -2.4156644490       27.9544149001      -17.2828473610  MEMB      81              0.0000000000
     10722        81  POPC      C12            -1.9568607582       28.4379112113      -18.7046597864  MEMB      81              0.0000000000
     10723        81  POPC      H12A           -0.8817986244       28.3380250957      -18.7304269813  MEMB      81              0.0000000000
     10724        81  POPC      H12B           -2.2310786745       29.4568762510      -18.9346921715  MEMB      81              0.0000000000
     10725        81  POPC      C13            -2.1746603910       26.5093129280      -17.0899821728  MEMB      81              0.0000000000
     10726        81  POPC      H13A           -2.7973838273       25.8977070978      -17.7260278110  MEMB      81              0.0000000000
     10727        81  POPC      H13B           -1.1575811163       26.2640782557      -17.3579552517  MEMB      81              0.0000000000
     10728        81  POPC      H13C           -2.4269926945       26.2657739152      -16.0685043608  MEMB      81              0.0000000000
     10729        81  POPC      C14            -1.4836344154       28.6006799612      -16.2235929566  MEMB      81              0.0000000000
     10730        81  POPC      H14A           -2.0117979384       29.5160862095      -16.0011638216  MEMB      81              0.0000000000
     10731        81  POPC      H14B           -1.2903531784       27.9694200708      -15.3688688526  MEMB      81              0.0000000000
     10732        81  POPC      H14C           -0.4943334916       28.7522224567      -16.6294479813  MEMB      81              0.0000000000
     10733        81  POPC      C15            -3.8290641779       28.1996168169      -16.9449003885  MEMB      81              0.0000000000
     10734        81  POPC      H15A           -4.4993309815       27.5522223761      -17.4908150103  MEMB      81              0.0000000000
     10735        81  POPC      H15B           -4.0452010770       29.2493928962      -17.0777721918  MEMB      81              0.0000000000
     10736        81  POPC      H15C           -3.8969397224       27.9516076087      -15.8959558645  MEMB      81              0.0000000000
     10737        81  POPC      C11            -2.5816440206       27.6547879085      -19.9035688243  MEMB      81              0.0000000000
     10738        81  POPC      H11A           -2.1273754112       26.6410687412      -19.9218541267  MEMB      81              0.0000000000
     10739        81  POPC      H11B           -2.2539898217       28.1248125528      -20.8554304867  MEMB      81              0.0000000000
     10740        81  POPC      P              -4.6525687031       26.4029798474      -20.5779867531  MEMB      81              0.0000000000
     10741        81  POPC      O13            -4.7961219418       25.0993418931      -19.8020644748  MEMB      81              0.0000000000
     10742        81  POPC      O14            -3.9943693482       26.3486729156      -21.9402060767  MEMB      81              0.0000000000
     10743        81  POPC      O12            -4.0069740560       27.6563986311      -19.8131982638  MEMB      81              0.0000000000
     10744        81  POPC      O11            -6.1103414851       26.9803378290      -20.7169929160  MEMB      81              0.0000000000
     10745        81  POPC      C1             -6.7695271107       27.8423604747      -19.7327983942  MEMB      81              0.0000000000
     10746        81  POPC      HA             -6.5694766480       28.9075943052      -19.9768840149  MEMB      81              0.0000000000
     10747        81  POPC      HB             -6.2743425959       27.6394471022      -18.7591765530  MEMB      81              0.0000000000
     10748        81  POPC      C2             -8.3349876605       27.4370780414      -19.4545887865  MEMB      81              0.0000000000
     10749        81  POPC      HS             -8.9472569357       27.9764388052      -20.2086031021  MEMB      81              0.0000000000
     10750        81  POPC      O21            -8.6974833938       27.7873178922      -18.1059700407  MEMB      81              0.0000000000
     10751        81  POPC      C21            -8.6836101659       29.0808974901      -17.7630424278  MEMB      81              0.0000000000
     10752        81  POPC      O22            -8.4208748981       30.0505923843      -18.4931851967  MEMB      81              0.0000000000
     10753        81  POPC      C22            -8.9596324291       29.1824886503      -16.3410817300  MEMB      81              0.0000000000
     10754        81  POPC      H2R            -9.6374484394       28.3595128838      -16.0286759456  MEMB      81              0.0000000000
     10755        81  POPC      H2S            -9.4277347745       30.1324840557      -16.0053586166  MEMB      81              0.0000000000
     10756        81  POPC      C3             -8.5605609213       25.8814076305      -19.7308740998  MEMB      81              0.0000000000
     10757        81  POPC      HX             -8.3312032387       25.7622345069      -20.8113896006  MEMB      81              0.0000000000
     10758        81  POPC      HY             -9.6653039214       25.7678219987      -19.6998569204  MEMB      81              0.0000000000
     10759        81  POPC      O31            -7.7638353870       25.0671724406      -18.7958923562  MEMB      81              0.0000000000
     10760        81  POPC      C31            -7.8702912855       24.9839696792      -17.5012997599  MEMB      81              0.0000000000
     10761        81  POPC      O32            -8.7396288678       25.3985219600      -16.7725106426  MEMB      81              0.0000000000
     10762        81  POPC      C32            -6.6895759310       24.2460609657      -16.9104238178  MEMB      81              0.0000000000
     10763        81  POPC      H2X            -5.6967558003       24.5451748557      -17.3093722648  MEMB      81              0.0000000000
     10764        81  POPC      H2Y            -7.0313320388       23.2234443204      -17.1783390528  MEMB      81              0.0000000000
     10765        81  POPC      C23            -7.6033780976       28.8764025567      -15.5643554489  MEMB      81              0.0000000000
     10766        81  POPC      H3R            -6.7158267513       29.4134669838      -15.9620176285  MEMB      81              0.0000000000
     10767        81  POPC      H3S            -7.4062826608       27.7854647020      -15.6373554657  MEMB      81              0.0000000000
     10768        81  POPC      C24            -7.7717704035       29.4269073505      -14.1146250505  MEMB      81              0.0000000000
     10769        81  POPC      H4R            -8.6762115702       28.9910840804      -13.6388460442  MEMB      81              0.0000000000
     10770        81  POPC      H4S            -7.8446421082       30.5320895137      -14.2017057924  MEMB      81              0.0000000000
     10771        81  POPC      C25            -6.7447791171       29.1734047961      -12.9908962952  MEMB      81              0.0000000000
     10772        81  POPC      H5R            -6.5984630013       28.0863004575      -12.8144973586  MEMB      81              0.0000000000
     10773        81  POPC      H5S            -7.1108605013       29.6798451103      -12.0722978267  MEMB      81              0.0000000000
     10774        81  POPC      C26            -5.4079496808       29.9569391218      -13.2029772369  MEMB      81              0.0000000000
     10775        81  POPC      H6R            -5.5971213928       31.0486597004      -13.1212401036  MEMB      81              0.0000000000
     10776        81  POPC      H6S            -5.0740194033       29.6877215468      -14.2278352699  MEMB      81              0.0000000000
     10777        81  POPC      C27            -4.3596894922       29.6404270392      -12.1270370627  MEMB      81              0.0000000000
     10778        81  POPC      H7R            -3.3058293965       29.6992415855      -12.4737947479  MEMB      81              0.0000000000
     10779        81  POPC      H7S            -4.6831922451       28.6441988767      -11.7566370028  MEMB      81              0.0000000000
     10780        81  POPC      C28            -4.5393677560       30.7405425293      -11.0844596144  MEMB      81              0.0000000000
     10781        81  POPC      H8R            -5.6162096865       30.7195866477      -10.8118918253  MEMB      81              0.0000000000
     10782        81  POPC      H8S            -4.3250879580       31.6904445135      -11.6193351784  MEMB      81              0.0000000000
     10783        81  POPC      C29            -3.6204606952       30.6618588846       -9.9044903884  MEMB      81              0.0000000000
     10784        81  POPC      H91            -2.5926608951       31.0537028684       -9.9137687448  MEMB      81              0.0000000000
     10785        81  POPC      C210           -3.8788754859       30.2249049297       -8.6752213528  MEMB      81              0.0000000000
     10786        81  POPC      H101           -3.1312269705       30.3462031301       -7.8775316610  MEMB      81              0.0000000000
     10787        81  POPC      C211           -5.2382323994       29.6209497672       -8.1537806012  MEMB      81              0.0000000000
     10788        81  POPC      H11R           -5.0518292671       29.0485646670       -7.2199978904  MEMB      81              0.0000000000
     10789        81  POPC      H11S           -5.5613604930       28.8987364208       -8.9337266019  MEMB      81              0.0000000000
     10790        81  POPC      C212           -6.4678935602       30.5896524166       -7.9528721898  MEMB      81              0.0000000000
     10791        81  POPC      H12R           -7.3858611634       29.9705852660       -8.0445918799  MEMB      81              0.0000000000
     10792        81  POPC      H12S           -6.4125565653       31.4112174701       -8.6987206115  MEMB      81              0.0000000000
     10793        81  POPC      C213           -6.5838525979       31.2212562638       -6.5374525836  MEMB      81              0.0000000000
     10794        81  POPC      H13R           -7.2897550491       32.0786679206       -6.5079917844  MEMB      81              0.0000000000
     10795        81  POPC      H13S           -5.6136346705       31.6853578749       -6.2588708000  MEMB      81              0.0000000000
     10796        81  POPC      C214           -6.9238976967       30.2024975168       -5.3991512462  MEMB      81              0.0000000000
     10797        81  POPC      H14R           -6.1791945694       29.3787893031       -5.3638935537  MEMB      81              0.0000000000
     10798        81  POPC      H14S           -7.9532302897       29.8012380219       -5.5165647900  MEMB      81              0.0000000000
     10799        81  POPC      C215           -6.7830736993       31.0375087889       -4.0672675517  MEMB      81              0.0000000000
     10800        81  POPC      H15R           -7.2541228009       32.0338789971       -4.2075537590  MEMB      81              0.0000000000
     10801        81  POPC      H15S           -5.7310022334       31.3343508170       -3.8688951014  MEMB      81              0.0000000000
     10802        81  POPC      C216           -7.4398233316       30.3724655692       -2.9108509607  MEMB      81              0.0000000000
     10803        81  POPC      H16R           -6.6831925454       29.6990137445       -2.4544603136  MEMB      81              0.0000000000
     10804        81  POPC      H16S           -8.2975130317       29.7547807518       -3.2531301710  MEMB      81              0.0000000000
     10805        81  POPC      C217           -8.0984129704       31.3649808762       -1.8911380326  MEMB      81              0.0000000000
     10806        81  POPC      H17R           -8.9993622105       31.7391227753       -2.4227666201  MEMB      81              0.0000000000
     10807        81  POPC      H17S           -7.5284109767       32.2937060885       -1.6746005875  MEMB      81              0.0000000000
     10808        81  POPC      C218           -8.6739404352       30.7792664914       -0.6014431475  MEMB      81              0.0000000000
     10809        81  POPC      H18R           -9.5007225747       30.1029364893       -0.9069435811  MEMB      81              0.0000000000
     10810        81  POPC      H18S           -8.9769990326       31.6079552336        0.0736512777  MEMB      81              0.0000000000
     10811        81  POPC      H18T           -8.0484516823       30.0453337763       -0.0496932655  MEMB      81              0.0000000000
     10812        81  POPC      C33            -6.5635301435       24.5179829486      -15.3454420183  MEMB      81              0.0000000000
     10813        81  POPC      H3X            -7.4028800314       24.0156122490      -14.8187196654  MEMB      81              0.0000000000
     10814        81  POPC      H3Y            -6.6107236515       25.5819127719      -15.0289818279  MEMB      81              0.0000000000
     10815        81  POPC      C34            -5.3236708843       23.8530546291      -14.6828096735  MEMB      81              0.0000000000
     10816        81  POPC      H4X            -4.4281474274       24.0259555300      -15.3172104323  MEMB      81              0.0000000000
     10817        81  POPC      H4Y            -5.4493787812       22.7491901155      -14.6838955321  MEMB      81              0.0000000000
     10818        81  POPC      C35            -5.1595901502       24.3408809921      -13.2275359050  MEMB      81              0.0000000000
     10819        81  POPC      H5X            -4.9015896521       25.4209129215      -13.1916486329  MEMB      81              0.0000000000
     10820        81  POPC      H5Y            -4.4501984214       23.6795193012      -12.6856086317  MEMB      81              0.0000000000
     10821        81  POPC      C36            -6.3759440891       23.9914604870      -12.3513528189  MEMB      81              0.0000000000
     10822        81  POPC      H6X            -6.6761025053       22.9261466660      -12.4479587352  MEMB      81              0.0000000000
     10823        81  POPC      H6Y            -7.3230011976       24.5398650950      -12.5428111365  MEMB      81              0.0000000000
     10824        81  POPC      C37            -6.1571147897       24.1412291240      -10.8380173296  MEMB      81              0.0000000000
     10825        81  POPC      H7X            -5.1722846436       23.6985215260      -10.5764059766  MEMB      81              0.0000000000
     10826        81  POPC      H7Y            -6.9699187238       23.5373188637      -10.3808926895  MEMB      81              0.0000000000
     10827        81  POPC      C38            -6.3368455171       25.6166499071      -10.4080584360  MEMB      81              0.0000000000
     10828        81  POPC      H8X            -7.4185552755       25.8149541851      -10.5658566165  MEMB      81              0.0000000000
     10829        81  POPC      H8Y            -5.7517761232       26.2869242013      -11.0734504374  MEMB      81              0.0000000000
     10830        81  POPC      C39            -6.0320244217       26.0051668046       -8.9489502597  MEMB      81              0.0000000000
     10831        81  POPC      H9X            -6.4726692703       27.0204566316       -8.8523083505  MEMB      81              0.0000000000
     10832        81  POPC      H9Y            -4.9494528908       26.0740607391       -8.7089225114  MEMB      81              0.0000000000
     10833        81  POPC      C310           -6.6192448981       25.0931502533       -7.8015625310  MEMB      81              0.0000000000
     10834        81  POPC      H10X           -6.2230295423       24.0556479066       -7.8319422048  MEMB      81              0.0000000000
     10835        81  POPC      H10Y           -7.6825109326       25.3775177528       -7.9529606051  MEMB      81              0.0000000000
     10836        81  POPC      C311           -6.1883651991       25.6726090975       -6.5256578999  MEMB      81              0.0000000000
     10837        81  POPC      H11X           -6.9631189718       25.5870465589       -5.7339785893  MEMB      81              0.0000000000
     10838        81  POPC      H11Y           -6.0520372315       26.7629539433       -6.6896210127  MEMB      81              0.0000000000
     10839        81  POPC      C312           -4.8623210776       25.1053724924       -6.0241453028  MEMB      81              0.0000000000
     10840        81  POPC      H12X           -4.0245948555       25.2584286868       -6.7376650029  MEMB      81              0.0000000000
     10841        81  POPC      H12Y           -4.9501390993       24.0544996800       -5.6744664513  MEMB      81              0.0000000000
     10842        81  POPC      C313           -4.4756881073       25.8741186167       -4.7535625162  MEMB      81              0.0000000000
     10843        81  POPC      H13X           -5.2880273362       26.3795722855       -4.1888125687  MEMB      81              0.0000000000
     10844        81  POPC      H13Y           -3.7768697136       26.7038869507       -4.9932668155  MEMB      81              0.0000000000
     10845        81  POPC      C314           -3.6124281585       25.0398931898       -3.7858541312  MEMB      81              0.0000000000
     10846        81  POPC      H14X           -3.1459704520       25.6350149755       -2.9718715030  MEMB      81              0.0000000000
     10847        81  POPC      H14Y           -2.8981500052       24.4509174632       -4.4000492586  MEMB      81              0.0000000000
     10848        81  POPC      C315           -4.5056710919       24.0024520389       -3.0407645276  MEMB      81              0.0000000000
     10849        81  POPC      H15X           -4.7227544552       23.1818112287       -3.7575245741  MEMB      81              0.0000000000
     10850        81  POPC      H15Y           -5.4818835428       24.4690736053       -2.7885851860  MEMB      81              0.0000000000
     10851        81  POPC      C316           -3.8440185620       23.4239382571       -1.8146444468  MEMB      81              0.0000000000
     10852        81  POPC      H16X           -3.7011602704       24.1892461140       -1.0220446633  MEMB      81              0.0000000000
     10853        81  POPC      H16Y           -2.8204785382       23.1465731863       -2.1459400417  MEMB      81              0.0000000000
     10854        81  POPC      H16Z           -4.3355951561       22.4719957623       -1.5205730705  MEMB      81              0.0000000000
     10855        82  POPC      N               5.5249027236       28.5510865928      -21.2706086020  MEMB      82              0.0000000000
     10856        82  POPC      C12             6.3472172000       28.5507860890      -20.0208247560  MEMB      82              0.0000000000
     10857        82  POPC      H12A            7.1571558387       29.2489407141      -20.1724143747  MEMB      82              0.0000000000
     10858        82  POPC      H12B            6.8803956230       27.6158290962      -19.9315151432  MEMB      82              0.0000000000
     10859        82  POPC      C13             4.5215008870       27.5587677417      -21.2093598414  MEMB      82              0.0000000000
     10860        82  POPC      H13A            3.7400729605       27.7859043012      -20.4993039923  MEMB      82              0.0000000000
     10861        82  POPC      H13B            4.0893410117       27.2785283076      -22.1586247751  MEMB      82              0.0000000000
     10862        82  POPC      H13C            4.9874240990       26.6188768615      -20.9526098189  MEMB      82              0.0000000000
     10863        82  POPC      C14             4.7861033005       29.9639870588      -21.4315898365  MEMB      82              0.0000000000
     10864        82  POPC      H14A            5.4950921362       30.7590237536      -21.2536804821  MEMB      82              0.0000000000
     10865        82  POPC      H14B            4.3731621568       29.9816928619      -22.4293702074  MEMB      82              0.0000000000
     10866        82  POPC      H14C            3.9794934792       29.8772689430      -20.7186658388  MEMB      82              0.0000000000
     10867        82  POPC      C15             6.4925005374       28.3879796231      -22.4315684299  MEMB      82              0.0000000000
     10868        82  POPC      H15A            6.9187063015       27.3967167562      -22.3852388065  MEMB      82              0.0000000000
     10869        82  POPC      H15B            7.2814470769       29.1251157963      -22.4071986808  MEMB      82              0.0000000000
     10870        82  POPC      H15C            5.9198863100       28.4977560964      -23.3406681136  MEMB      82              0.0000000000
     10871        82  POPC      C11             5.8087382419       28.9565874144      -18.5913254508  MEMB      82              0.0000000000
     10872        82  POPC      H11A            5.4371640319       29.9947854593      -18.7269662563  MEMB      82              0.0000000000
     10873        82  POPC      H11B            6.6236854469       28.9233264340      -17.8369542694  MEMB      82              0.0000000000
     10874        82  POPC      P               4.2336014204       28.0535485347      -16.7654667591  MEMB      82              0.0000000000
     10875        82  POPC      O13             2.7886057383       28.3579527748      -16.6922290235  MEMB      82              0.0000000000
     10876        82  POPC      O14             5.2024433456       28.8372818332      -15.9019688764  MEMB      82              0.0000000000
     10877        82  POPC      O12             4.7378365319       28.1719806138      -18.2227129692  MEMB      82              0.0000000000
     10878        82  POPC      O11             4.4159775579       26.4676910547      -16.4623454979  MEMB      82              0.0000000000
     10879        82  POPC      C1              5.4506792276       25.7805103912      -17.1024928778  MEMB      82              0.0000000000
     10880        82  POPC      HA              6.4201894917       26.3230603289      -17.1057301397  MEMB      82              0.0000000000
     10881        82  POPC      HB              5.2273370804       25.4789033662      -18.1481852167  MEMB      82              0.0000000000
     10882        82  POPC      C2              5.6944750107       24.4621612327      -16.3720916784  MEMB      82              0.0000000000
     10883        82  POPC      HS              4.8020739493       23.8373247393      -16.5900843764  MEMB      82              0.0000000000
     10884        82  POPC      O21             5.7028844412       24.6530888370      -14.9602309318  MEMB      82              0.0000000000
     10885        82  POPC      C21             4.5855400796       24.5636792987      -14.2576053248  MEMB      82              0.0000000000
     10886        82  POPC      O22             3.4535585727       24.2579097194      -14.6970583594  MEMB      82              0.0000000000
     10887        82  POPC      C22             4.8592037175       24.9361625208      -12.7871599469  MEMB      82              0.0000000000
     10888        82  POPC      H2R             5.9046857489       24.9084996547      -12.4122958786  MEMB      82              0.0000000000
     10889        82  POPC      H2S             4.4102047861       24.1308340391      -12.1673478392  MEMB      82              0.0000000000
     10890        82  POPC      C3              7.0144994784       23.8408150177      -16.8743307546  MEMB      82              0.0000000000
     10891        82  POPC      HX              6.8965912996       23.7738785585      -17.9770266737  MEMB      82              0.0000000000
     10892        82  POPC      HY              7.1764300962       22.8094677420      -16.4943012248  MEMB      82              0.0000000000
     10893        82  POPC      O31             8.1294194978       24.6973522453      -16.6371874661  MEMB      82              0.0000000000
     10894        82  POPC      C31             8.6217101282       24.7045399339      -15.4374013032  MEMB      82              0.0000000000
     10895        82  POPC      O32             8.2198520008       24.1255267432      -14.4446995048  MEMB      82              0.0000000000
     10896        82  POPC      C32             9.6797121189       25.8480374244      -15.5446054659  MEMB      82              0.0000000000
     10897        82  POPC      H2X             9.5120655877       26.6400527578      -16.3054781268  MEMB      82              0.0000000000
     10898        82  POPC      H2Y            10.6611544887       25.3310925907      -15.4824760516  MEMB      82              0.0000000000
     10899        82  POPC      C23             4.2176153117       26.3380893984      -12.5411903371  MEMB      82              0.0000000000
     10900        82  POPC      H3R             4.4384828546       27.0017917615      -13.4043462650  MEMB      82              0.0000000000
     10901        82  POPC      H3S             4.7586519053       26.7198278421      -11.6490714838  MEMB      82              0.0000000000
     10902        82  POPC      C24             2.7169582477       26.3414591702      -12.3526189447  MEMB      82              0.0000000000
     10903        82  POPC      H4R             2.1608159964       25.8240673862      -13.1633797314  MEMB      82              0.0000000000
     10904        82  POPC      H4S             2.1960262370       27.3203473019      -12.2838514869  MEMB      82              0.0000000000
     10905        82  POPC      C25             2.0956250193       25.5422877523      -11.1774639229  MEMB      82              0.0000000000
     10906        82  POPC      H5R             2.4744885792       24.5024318678      -11.2748445020  MEMB      82              0.0000000000
     10907        82  POPC      H5S             0.9897988699       25.6247914133      -11.1091789177  MEMB      82              0.0000000000
     10908        82  POPC      C26             2.7311176554       25.9829648324       -9.8114323191  MEMB      82              0.0000000000
     10909        82  POPC      H6R             2.6588048878       27.0618079591       -9.5561098087  MEMB      82              0.0000000000
     10910        82  POPC      H6S             3.8067473299       25.7438646466       -9.9534651682  MEMB      82              0.0000000000
     10911        82  POPC      C27             2.0529185945       25.2834760654       -8.6147576101  MEMB      82              0.0000000000
     10912        82  POPC      H7R             1.3918009166       24.4279914355       -8.8704720265  MEMB      82              0.0000000000
     10913        82  POPC      H7S             1.5125985393       26.0563655095       -8.0273758616  MEMB      82              0.0000000000
     10914        82  POPC      C28             3.0663979096       24.6904708428       -7.5880127147  MEMB      82              0.0000000000
     10915        82  POPC      H8R             2.4744022945       24.3497746888       -6.7117767466  MEMB      82              0.0000000000
     10916        82  POPC      H8S             3.6267885205       25.5775640886       -7.2228422674  MEMB      82              0.0000000000
     10917        82  POPC      C29             3.8284283710       23.4627907331       -8.1491801920  MEMB      82              0.0000000000
     10918        82  POPC      H91             3.1991894287       22.5648926377       -8.2377088189  MEMB      82              0.0000000000
     10919        82  POPC      C210            5.1203315941       23.4868583878       -8.5401466964  MEMB      82              0.0000000000
     10920        82  POPC      H101            5.5298458292       22.5528900238       -8.9524584488  MEMB      82              0.0000000000
     10921        82  POPC      C211            5.8931236314       24.7128313822       -8.4627126489  MEMB      82              0.0000000000
     10922        82  POPC      H11R            5.4526889596       25.6606454774       -8.8395246099  MEMB      82              0.0000000000
     10923        82  POPC      H11S            6.8398297811       24.4415555384       -8.9769870808  MEMB      82              0.0000000000
     10924        82  POPC      C212            6.5151845017       25.1255623028       -7.1151229240  MEMB      82              0.0000000000
     10925        82  POPC      H12R            5.6885012546       25.2954944927       -6.3926005064  MEMB      82              0.0000000000
     10926        82  POPC      H12S            7.0432334371       26.0702494461       -7.3662239483  MEMB      82              0.0000000000
     10927        82  POPC      C213            7.4368628981       24.0853640739       -6.5205705242  MEMB      82              0.0000000000
     10928        82  POPC      H13R            8.3556051977       23.8869757944       -7.1129184431  MEMB      82              0.0000000000
     10929        82  POPC      H13S            6.7984087368       23.1775001451       -6.4707641680  MEMB      82              0.0000000000
     10930        82  POPC      C214            7.9237866233       24.5229667476       -5.0621079145  MEMB      82              0.0000000000
     10931        82  POPC      H14R            7.7664112366       25.6227177154       -5.0520334831  MEMB      82              0.0000000000
     10932        82  POPC      H14S            9.0061116966       24.2721831276       -5.0633381189  MEMB      82              0.0000000000
     10933        82  POPC      C215            7.2508583241       23.8235887554       -3.8677660749  MEMB      82              0.0000000000
     10934        82  POPC      H15R            7.6159042626       22.7809956037       -3.7491840109  MEMB      82              0.0000000000
     10935        82  POPC      H15S            6.1471296844       23.8284101028       -3.9945765974  MEMB      82              0.0000000000
     10936        82  POPC      C216            7.5778341864       24.4028163987       -2.4307295475  MEMB      82              0.0000000000
     10937        82  POPC      H16R            8.6546616099       24.6099165273       -2.2522021526  MEMB      82              0.0000000000
     10938        82  POPC      H16S            7.1857073677       23.6606361684       -1.7029075407  MEMB      82              0.0000000000
     10939        82  POPC      C217            6.9453576422       25.8223909585       -2.2738539665  MEMB      82              0.0000000000
     10940        82  POPC      H17R            6.9679563903       26.3139517904       -3.2699361739  MEMB      82              0.0000000000
     10941        82  POPC      H17S            7.3933268621       26.5477585694       -1.5614740319  MEMB      82              0.0000000000
     10942        82  POPC      C218            5.5728336655       25.6689473343       -1.7838168742  MEMB      82              0.0000000000
     10943        82  POPC      H18R            5.5458022531       25.1313400364       -0.8119284505  MEMB      82              0.0000000000
     10944        82  POPC      H18S            4.7925685039       25.2022922520       -2.4223624555  MEMB      82              0.0000000000
     10945        82  POPC      H18T            5.1371971601       26.6369052147       -1.4557936594  MEMB      82              0.0000000000
     10946        82  POPC      C33             9.7148246413       26.7497040365      -14.2587599034  MEMB      82              0.0000000000
     10947        82  POPC      H3X            10.5778807877       27.4105765208      -14.4883306125  MEMB      82              0.0000000000
     10948        82  POPC      H3Y             9.8933155156       26.0422873105      -13.4208913380  MEMB      82              0.0000000000
     10949        82  POPC      C34             8.4918233295       27.5755011438      -13.9053674047  MEMB      82              0.0000000000
     10950        82  POPC      H4X             7.6513970368       27.0256634842      -14.3804288141  MEMB      82              0.0000000000
     10951        82  POPC      H4Y             8.3933330227       28.5774824590      -14.3751055096  MEMB      82              0.0000000000
     10952        82  POPC      C35             8.1996272875       27.7719969092      -12.3738605471  MEMB      82              0.0000000000
     10953        82  POPC      H5X             8.1812087705       26.8905567816      -11.6978098595  MEMB      82              0.0000000000
     10954        82  POPC      H5Y             7.2956231747       28.4076056398      -12.2594089853  MEMB      82              0.0000000000
     10955        82  POPC      C36             9.3654698580       28.6282945169      -11.8434439736  MEMB      82              0.0000000000
     10956        82  POPC      H6X             9.2261174463       29.6463716001      -12.2658433242  MEMB      82              0.0000000000
     10957        82  POPC      H6Y            10.3454441029       28.3128933975      -12.2611684232  MEMB      82              0.0000000000
     10958        82  POPC      C37             9.5390185980       28.7642473425      -10.3044695418  MEMB      82              0.0000000000
     10959        82  POPC      H7X            10.2522661062       29.5847504738      -10.0756172052  MEMB      82              0.0000000000
     10960        82  POPC      H7Y             9.8930639612       27.8116374077       -9.8555746019  MEMB      82              0.0000000000
     10961        82  POPC      C38             8.3280436929       29.1590194072       -9.4297704333  MEMB      82              0.0000000000
     10962        82  POPC      H8X             7.5004825496       28.4270624030       -9.5468287247  MEMB      82              0.0000000000
     10963        82  POPC      H8Y             7.9356685480       30.1846159125       -9.5986335765  MEMB      82              0.0000000000
     10964        82  POPC      C39             8.7232553084       29.0596601504       -7.9672811330  MEMB      82              0.0000000000
     10965        82  POPC      H9X             9.7113237951       29.5669440279       -7.9407377609  MEMB      82              0.0000000000
     10966        82  POPC      H9Y             8.9598337050       27.9901435720       -7.7815767217  MEMB      82              0.0000000000
     10967        82  POPC      C310            7.7819021149       29.6261884944       -6.9571917522  MEMB      82              0.0000000000
     10968        82  POPC      H10X            7.6027361323       30.7125453817       -7.1056816705  MEMB      82              0.0000000000
     10969        82  POPC      H10Y            8.3102976876       29.5278854608       -5.9848468478  MEMB      82              0.0000000000
     10970        82  POPC      C311            6.3661810436       28.9149538864       -6.9287240151  MEMB      82              0.0000000000
     10971        82  POPC      H11X            6.5973435669       27.8822375254       -6.5905201151  MEMB      82              0.0000000000
     10972        82  POPC      H11Y            5.8969740385       28.8523893309       -7.9338365313  MEMB      82              0.0000000000
     10973        82  POPC      C312            5.3382431173       29.3314504660       -5.8468974022  MEMB      82              0.0000000000
     10974        82  POPC      H12X            4.5863363694       28.5151264256       -5.7961799229  MEMB      82              0.0000000000
     10975        82  POPC      H12Y            4.7327471497       30.1678342434       -6.2569675781  MEMB      82              0.0000000000
     10976        82  POPC      C313            6.0233122889       29.7834576636       -4.5244339851  MEMB      82              0.0000000000
     10977        82  POPC      H13X            6.7067286394       30.5903489361       -4.8652998672  MEMB      82              0.0000000000
     10978        82  POPC      H13Y            6.5766378638       28.8401894858       -4.3284815915  MEMB      82              0.0000000000
     10979        82  POPC      C314            5.1519207969       30.2824498430       -3.4330852003  MEMB      82              0.0000000000
     10980        82  POPC      H14X            4.4873771715       29.4200927595       -3.2116288515  MEMB      82              0.0000000000
     10981        82  POPC      H14Y            4.5360576536       31.0935177735       -3.8771600559  MEMB      82              0.0000000000
     10982        82  POPC      C315            5.8355844355       30.7159211762       -2.1148904537  MEMB      82              0.0000000000
     10983        82  POPC      H15X            4.9740989499       30.9746364270       -1.4627941057  MEMB      82              0.0000000000
     10984        82  POPC      H15Y            6.4492462744       31.6250676074       -2.2915052685  MEMB      82              0.0000000000
     10985        82  POPC      C316            6.7181093747       29.6559354594       -1.4510180122  MEMB      82              0.0000000000
     10986        82  POPC      H16X            7.3682597810       30.1376022899       -0.6896890005  MEMB      82              0.0000000000
     10987        82  POPC      H16Y            7.3328043777       29.1471196247       -2.2240502718  MEMB      82              0.0000000000
     10988        82  POPC      H16Z            6.2043920564       28.7743287260       -1.0114910921  MEMB      82              0.0000000000
     10989        83  POPC      N             -23.8751117806       16.9724839594      -20.2438751418  MEMB      83              0.0000000000
     10990        83  POPC      C12           -24.7442204560       18.1963155449      -20.5339708737  MEMB      83              0.0000000000
     10991        83  POPC      H12A          -25.3833178282       17.8669830969      -21.3398832814  MEMB      83              0.0000000000
     10992        83  POPC      H12B          -24.1012658943       18.9799894457      -20.9066161687  MEMB      83              0.0000000000
     10993        83  POPC      C13           -24.6334209709       15.7181436229      -19.9038061366  MEMB      83              0.0000000000
     10994        83  POPC      H13A          -24.0156880897       14.8363209131      -19.8189837357  MEMB      83              0.0000000000
     10995        83  POPC      H13B          -25.0831664594       15.9252457164      -18.9439948901  MEMB      83              0.0000000000
     10996        83  POPC      H13C          -25.3933959320       15.5214413679      -20.6455246634  MEMB      83              0.0000000000
     10997        83  POPC      C14           -23.0894215301       16.6664691173      -21.4917925638  MEMB      83              0.0000000000
     10998        83  POPC      H14A          -23.6490995818       16.3482577738      -22.3589153072  MEMB      83              0.0000000000
     10999        83  POPC      H14B          -22.5061883908       17.5150834994      -21.8175110586  MEMB      83              0.0000000000
     11000        83  POPC      H14C          -22.4347095268       15.8350797331      -21.2760518979  MEMB      83              0.0000000000
     11001        83  POPC      C15           -22.8523835265       17.1773708016      -19.0878108858  MEMB      83              0.0000000000
     11002        83  POPC      H15A          -22.0374045002       17.8470203056      -19.3197133752  MEMB      83              0.0000000000
     11003        83  POPC      H15B          -22.5506860222       16.2201143017      -18.6890142977  MEMB      83              0.0000000000
     11004        83  POPC      H15C          -23.4301180614       17.8076870790      -18.4280198374  MEMB      83              0.0000000000
     11005        83  POPC      C11           -25.6380147815       18.7579636832      -19.3941579156  MEMB      83              0.0000000000
     11006        83  POPC      H11A          -26.2480587990       19.6218081395      -19.7346576241  MEMB      83              0.0000000000
     11007        83  POPC      H11B          -24.9565954672       19.1302059169      -18.5995357377  MEMB      83              0.0000000000
     11008        83  POPC      P             -27.4165482053       17.7574017480      -17.6421625715  MEMB      83              0.0000000000
     11009        83  POPC      O13           -27.3096837597       16.5840407778      -16.7855739138  MEMB      83              0.0000000000
     11010        83  POPC      O14           -28.7242495195       17.9351625677      -18.2635973606  MEMB      83              0.0000000000
     11011        83  POPC      O12           -26.3405590084       17.7103526921      -18.8193530760  MEMB      83              0.0000000000
     11012        83  POPC      O11           -26.9356953107       18.9689599224      -16.8338995649  MEMB      83              0.0000000000
     11013        83  POPC      C1            -27.7198376664       19.5634055498      -15.7860693583  MEMB      83              0.0000000000
     11014        83  POPC      HA            -28.7791028436       19.2410083638      -15.8773840060  MEMB      83              0.0000000000
     11015        83  POPC      HB            -27.8580277121       20.6610615288      -15.8879304192  MEMB      83              0.0000000000
     11016        83  POPC      C2            -27.0824410985       19.3098098946      -14.4075803896  MEMB      83              0.0000000000
     11017        83  POPC      HS            -25.9746193266       19.3633984571      -14.4722353902  MEMB      83              0.0000000000
     11018        83  POPC      O21           -27.2960931786       17.9311642124      -14.0386343508  MEMB      83              0.0000000000
     11019        83  POPC      C21           -26.4671596053       17.4841006303      -13.0908064804  MEMB      83              0.0000000000
     11020        83  POPC      O22           -25.5567054323       18.0889260008      -12.6270066396  MEMB      83              0.0000000000
     11021        83  POPC      C22           -26.8138655691       16.0321992727      -12.6850734772  MEMB      83              0.0000000000
     11022        83  POPC      H2R           -26.1371409411       15.6462960940      -11.8929602803  MEMB      83              0.0000000000
     11023        83  POPC      H2S           -26.6236548332       15.3059927594      -13.5040760543  MEMB      83              0.0000000000
     11024        83  POPC      C3            -27.6831065399       20.1948634589      -13.2185632859  MEMB      83              0.0000000000
     11025        83  POPC      HX            -28.7222772920       19.8210708640      -13.0972197161  MEMB      83              0.0000000000
     11026        83  POPC      HY            -27.7638224822       21.2707569363      -13.4836282905  MEMB      83              0.0000000000
     11027        83  POPC      O31           -26.9832565184       20.0587095326      -11.9616629011  MEMB      83              0.0000000000
     11028        83  POPC      C31           -27.6747299601       20.3289255984      -10.9327991673  MEMB      83              0.0000000000
     11029        83  POPC      O32           -28.7842786735       20.8558359884      -10.9422530052  MEMB      83              0.0000000000
     11030        83  POPC      C32           -26.7575360031       20.1527008308       -9.6734529985  MEMB      83              0.0000000000
     11031        83  POPC      H2X           -25.8050790627       19.6886715958      -10.0078540102  MEMB      83              0.0000000000
     11032        83  POPC      H2Y           -27.3108232945       19.4358142663       -9.0298171897  MEMB      83              0.0000000000
     11033        83  POPC      C23           -28.2656768990       15.9712770128      -12.0939546653  MEMB      83              0.0000000000
     11034        83  POPC      H3R           -28.5927585950       14.9172958453      -11.9656498028  MEMB      83              0.0000000000
     11035        83  POPC      H3S           -28.9546343606       16.6172044355      -12.6791350703  MEMB      83              0.0000000000
     11036        83  POPC      C24           -28.1633965880       16.4216671613      -10.6380750564  MEMB      83              0.0000000000
     11037        83  POPC      H4R           -29.1706909388       16.6674257941      -10.2389744357  MEMB      83              0.0000000000
     11038        83  POPC      H4S           -27.6662250746       17.4126738879      -10.5670308260  MEMB      83              0.0000000000
     11039        83  POPC      C25           -27.5955993489       15.3961294812       -9.6758890044  MEMB      83              0.0000000000
     11040        83  POPC      H5R           -26.4965947036       15.2334585500       -9.6689560160  MEMB      83              0.0000000000
     11041        83  POPC      H5S           -28.1070841392       14.4326801169       -9.8867676797  MEMB      83              0.0000000000
     11042        83  POPC      C26           -27.8703893716       15.7304740891       -8.1936390113  MEMB      83              0.0000000000
     11043        83  POPC      H6R           -27.6808433893       14.8114899071       -7.5987757713  MEMB      83              0.0000000000
     11044        83  POPC      H6S           -28.9264495119       16.0688073894       -8.1258971655  MEMB      83              0.0000000000
     11045        83  POPC      C27           -27.0878257883       16.8981097462       -7.6067463357  MEMB      83              0.0000000000
     11046        83  POPC      H7R           -26.9033360056       17.6921414131       -8.3615958616  MEMB      83              0.0000000000
     11047        83  POPC      H7S           -26.1374305954       16.5233485946       -7.1701411596  MEMB      83              0.0000000000
     11048        83  POPC      C28           -27.6876192937       17.6483358960       -6.3216099925  MEMB      83              0.0000000000
     11049        83  POPC      H8R           -26.9188968943       18.4129256973       -6.0791449756  MEMB      83              0.0000000000
     11050        83  POPC      H8S           -27.8021615565       16.9206029814       -5.4899814021  MEMB      83              0.0000000000
     11051        83  POPC      C29           -28.9613693640       18.3262844970       -6.7398918392  MEMB      83              0.0000000000
     11052        83  POPC      H91           -28.7919929180       19.2071507168       -7.3765917302  MEMB      83              0.0000000000
     11053        83  POPC      C210          -30.1602798470       18.0003222814       -6.2406204565  MEMB      83              0.0000000000
     11054        83  POPC      H101          -30.9582202827       18.7308675935       -6.4396053797  MEMB      83              0.0000000000
     11055        83  POPC      C211          -30.4932032126       16.8754287285       -5.2532659216  MEMB      83              0.0000000000
     11056        83  POPC      H11R          -30.0440444155       15.9370895967       -5.6432620970  MEMB      83              0.0000000000
     11057        83  POPC      H11S          -31.5915390572       16.7688530952       -5.3821888708  MEMB      83              0.0000000000
     11058        83  POPC      C212          -30.2168034378       16.9751274676       -3.7440087427  MEMB      83              0.0000000000
     11059        83  POPC      H12R          -30.4116870320       18.0494637914       -3.5387220108  MEMB      83              0.0000000000
     11060        83  POPC      H12S          -29.1283112286       16.7642711793       -3.6729785307  MEMB      83              0.0000000000
     11061        83  POPC      C213          -30.8795011826       15.9803228519       -2.7028441183  MEMB      83              0.0000000000
     11062        83  POPC      H13R          -30.5488284076       14.9316822433       -2.8619948649  MEMB      83              0.0000000000
     11063        83  POPC      H13S          -31.9606177953       16.0316282693       -2.9535935728  MEMB      83              0.0000000000
     11064        83  POPC      C214          -30.8443928760       16.3300719446       -1.2004149358  MEMB      83              0.0000000000
     11065        83  POPC      H14R          -31.2366842274       15.4345585602       -0.6726985306  MEMB      83              0.0000000000
     11066        83  POPC      H14S          -31.3430461295       17.3126515132       -1.0582783415  MEMB      83              0.0000000000
     11067        83  POPC      C215          -29.3215225982       16.5447841498       -0.7799067049  MEMB      83              0.0000000000
     11068        83  POPC      H15R          -29.4165421234       16.7501825092        0.3077994798  MEMB      83              0.0000000000
     11069        83  POPC      H15S          -28.8870050991       17.4308430067       -1.2902151117  MEMB      83              0.0000000000
     11070        83  POPC      C216          -28.4058247788       15.3462012776       -1.0098127033  MEMB      83              0.0000000000
     11071        83  POPC      H16R          -28.1465767472       15.3091738354       -2.0895074226  MEMB      83              0.0000000000
     11072        83  POPC      H16S          -28.7540182282       14.3189235500       -0.7694318731  MEMB      83              0.0000000000
     11073        83  POPC      C217          -27.0652848086       15.4138744990       -0.2768247560  MEMB      83              0.0000000000
     11074        83  POPC      H17R          -27.2874131544       15.4951513854        0.8087049298  MEMB      83              0.0000000000
     11075        83  POPC      H17S          -26.4085075341       16.2230416920       -0.6618105912  MEMB      83              0.0000000000
     11076        83  POPC      C218          -26.2012428593       14.2229937914       -0.4065798225  MEMB      83              0.0000000000
     11077        83  POPC      H18R          -26.6724050664       13.2578540720       -0.1222684945  MEMB      83              0.0000000000
     11078        83  POPC      H18S          -25.3011028518       14.3192595354        0.2374709183  MEMB      83              0.0000000000
     11079        83  POPC      H18T          -25.7521158286       14.2030169412       -1.4225543126  MEMB      83              0.0000000000
     11080        83  POPC      C33           -26.5565946318       21.4737904109       -8.8524031701  MEMB      83              0.0000000000
     11081        83  POPC      H3X           -27.5639471477       21.8794936269       -8.6179525041  MEMB      83              0.0000000000
     11082        83  POPC      H3Y           -26.0533946828       22.1630474802       -9.5637650035  MEMB      83              0.0000000000
     11083        83  POPC      C34           -25.6225853460       21.0897580304       -7.6182202673  MEMB      83              0.0000000000
     11084        83  POPC      H4X           -26.2388247675       20.8270760574       -6.7318969932  MEMB      83              0.0000000000
     11085        83  POPC      H4Y           -25.1795956612       22.0808539574       -7.3819787201  MEMB      83              0.0000000000
     11086        83  POPC      C35           -24.3757274124       20.1729401613       -7.8200018967  MEMB      83              0.0000000000
     11087        83  POPC      H5X           -23.8703474993       20.3956379958       -8.7840129335  MEMB      83              0.0000000000
     11088        83  POPC      H5Y           -24.7180706999       19.1188549296       -7.8976334766  MEMB      83              0.0000000000
     11089        83  POPC      C36           -23.3953745482       20.2695704598       -6.6677662069  MEMB      83              0.0000000000
     11090        83  POPC      H6X           -23.8836203825       20.3224509041       -5.6712016813  MEMB      83              0.0000000000
     11091        83  POPC      H6Y           -22.8674262795       21.2362196470       -6.8133037629  MEMB      83              0.0000000000
     11092        83  POPC      C37           -22.2836319396       19.2434229678       -6.9071842447  MEMB      83              0.0000000000
     11093        83  POPC      H7X           -21.5677150057       19.5726847864       -6.1240040281  MEMB      83              0.0000000000
     11094        83  POPC      H7Y           -21.7625349830       19.4213050059       -7.8721379768  MEMB      83              0.0000000000
     11095        83  POPC      C38           -22.6359437903       17.7625523203       -6.6214400155  MEMB      83              0.0000000000
     11096        83  POPC      H8X           -21.6805092400       17.2119834003       -6.4860131788  MEMB      83              0.0000000000
     11097        83  POPC      H8Y           -22.9897257133       17.2284455082       -7.5291228562  MEMB      83              0.0000000000
     11098        83  POPC      C39           -23.5201716392       17.4452702706       -5.3731919005  MEMB      83              0.0000000000
     11099        83  POPC      H9X           -23.5546363022       16.3349155192       -5.3888659653  MEMB      83              0.0000000000
     11100        83  POPC      H9Y           -24.4851777470       17.9925157105       -5.4332471667  MEMB      83              0.0000000000
     11101        83  POPC      C310          -22.8325473167       17.8940167265       -4.0489399643  MEMB      83              0.0000000000
     11102        83  POPC      H10X          -22.5296532339       18.9610827219       -4.1117617095  MEMB      83              0.0000000000
     11103        83  POPC      H10Y          -21.8856723200       17.3283940716       -3.9154466186  MEMB      83              0.0000000000
     11104        83  POPC      C311          -23.7285233504       17.6009308706       -2.8414907555  MEMB      83              0.0000000000
     11105        83  POPC      H11X          -23.3250996204       18.0715500784       -1.9194880847  MEMB      83              0.0000000000
     11106        83  POPC      H11Y          -23.5478684242       16.5317175937       -2.5996894751  MEMB      83              0.0000000000
     11107        83  POPC      C312          -25.1958960410       17.8690195562       -2.8778781053  MEMB      83              0.0000000000
     11108        83  POPC      H12X          -25.7198735204       17.5564288794       -1.9494087046  MEMB      83              0.0000000000
     11109        83  POPC      H12Y          -25.6406093344       17.3856065325       -3.7739046110  MEMB      83              0.0000000000
     11110        83  POPC      C313          -25.5711296203       19.3605445492       -3.0460697710  MEMB      83              0.0000000000
     11111        83  POPC      H13X          -25.1960878206       19.6873301015       -4.0394864984  MEMB      83              0.0000000000
     11112        83  POPC      H13Y          -25.0058152624       20.0315163975       -2.3644999520  MEMB      83              0.0000000000
     11113        83  POPC      C314          -27.0367097627       19.5244790993       -2.7950103788  MEMB      83              0.0000000000
     11114        83  POPC      H14X          -27.3065948968       19.0806616899       -1.8129162767  MEMB      83              0.0000000000
     11115        83  POPC      H14Y          -27.6484207627       18.9114361631       -3.4909333652  MEMB      83              0.0000000000
     11116        83  POPC      C315          -27.4910884340       21.0010048306       -2.9721393041  MEMB      83              0.0000000000
     11117        83  POPC      H15X          -28.5892741745       20.9025866907       -2.8356720082  MEMB      83              0.0000000000
     11118        83  POPC      H15Y          -27.2844087127       21.3088291308       -4.0194445098  MEMB      83              0.0000000000
     11119        83  POPC      C316          -26.9712261397       21.9421275391       -1.9583414007  MEMB      83              0.0000000000
     11120        83  POPC      H16X          -27.3609566404       21.6413672090       -0.9623626622  MEMB      83              0.0000000000
     11121        83  POPC      H16Y          -27.4509198801       22.8952611528       -2.2677782896  MEMB      83              0.0000000000
     11122        83  POPC      H16Z          -25.8610963170       21.9845118617       -1.9466741061  MEMB      83              0.0000000000
     11123        84  POPC      N             -23.7929617594      -17.3286854918      -19.5476412510  MEMB      84              0.0000000000
     11124        84  POPC      C12           -22.5670451584      -18.2624201987      -19.5215536892  MEMB      84              0.0000000000
     11125        84  POPC      H12A          -21.7906363656      -17.6629722608      -19.0696119818  MEMB      84              0.0000000000
     11126        84  POPC      H12B          -22.3383756998      -18.4169182602      -20.5656996339  MEMB      84              0.0000000000
     11127        84  POPC      C13           -24.9481153799      -18.1152461583      -20.1984199908  MEMB      84              0.0000000000
     11128        84  POPC      H13A          -24.5586548342      -18.6988988331      -21.0194375411  MEMB      84              0.0000000000
     11129        84  POPC      H13B          -25.2072806978      -18.9457070259      -19.5584449894  MEMB      84              0.0000000000
     11130        84  POPC      H13C          -25.7858913784      -17.6123314973      -20.6584290684  MEMB      84              0.0000000000
     11131        84  POPC      C14           -24.1277240659      -16.9557430895      -18.0758232286  MEMB      84              0.0000000000
     11132        84  POPC      H14A          -24.7033971969      -16.0421088383      -18.0923412396  MEMB      84              0.0000000000
     11133        84  POPC      H14B          -24.4990686079      -17.7677872328      -17.4682976412  MEMB      84              0.0000000000
     11134        84  POPC      H14C          -23.1387478107      -16.8107650548      -17.6667909681  MEMB      84              0.0000000000
     11135        84  POPC      C15           -23.4876470889      -16.1185005240      -20.2724251706  MEMB      84              0.0000000000
     11136        84  POPC      H15A          -23.1364004535      -16.3794558785      -21.2598095702  MEMB      84              0.0000000000
     11137        84  POPC      H15B          -22.7185974411      -15.5685819773      -19.7503599354  MEMB      84              0.0000000000
     11138        84  POPC      H15C          -24.3892091388      -15.5372249073      -20.3977436028  MEMB      84              0.0000000000
     11139        84  POPC      C11           -22.6800334517      -19.5532679295      -18.5896823440  MEMB      84              0.0000000000
     11140        84  POPC      H11A          -23.1535749184      -19.3245679548      -17.6110220997  MEMB      84              0.0000000000
     11141        84  POPC      H11B          -21.6169479731      -19.8036217486      -18.3859832033  MEMB      84              0.0000000000
     11142        84  POPC      P             -22.9512414915      -22.1484681476      -18.5788645113  MEMB      84              0.0000000000
     11143        84  POPC      O13           -21.5150680402      -22.5223444490      -18.9053740639  MEMB      84              0.0000000000
     11144        84  POPC      O14           -24.0126979821      -23.0655745261      -19.1391911079  MEMB      84              0.0000000000
     11145        84  POPC      O12           -23.2852941252      -20.6708740531      -19.1865983289  MEMB      84              0.0000000000
     11146        84  POPC      O11           -23.1359695580      -22.0394746279      -16.9844263139  MEMB      84              0.0000000000
     11147        84  POPC      C1            -24.4390884657      -21.9691097393      -16.4196084019  MEMB      84              0.0000000000
     11148        84  POPC      HA            -25.1057986677      -22.8189909215      -16.6794558550  MEMB      84              0.0000000000
     11149        84  POPC      HB            -24.9965490104      -21.0691482602      -16.7566960762  MEMB      84              0.0000000000
     11150        84  POPC      C2            -24.4552226920      -21.9884672836      -14.9034473026  MEMB      84              0.0000000000
     11151        84  POPC      HS            -25.4065186587      -21.5528692482      -14.5298011110  MEMB      84              0.0000000000
     11152        84  POPC      O21           -23.2984328091      -21.2843411119      -14.2810610797  MEMB      84              0.0000000000
     11153        84  POPC      C21           -23.1741034052      -19.9948189056      -14.5124047276  MEMB      84              0.0000000000
     11154        84  POPC      O22           -23.9852042909      -19.2696863647      -14.9575244058  MEMB      84              0.0000000000
     11155        84  POPC      C22           -21.7938523134      -19.5299355537      -14.0131321205  MEMB      84              0.0000000000
     11156        84  POPC      H2R           -21.4546819351      -18.6133728368      -14.5415232320  MEMB      84              0.0000000000
     11157        84  POPC      H2S           -21.0753603757      -20.3590437691      -14.1882601937  MEMB      84              0.0000000000
     11158        84  POPC      C3            -24.4197230004      -23.4259251344      -14.3660315034  MEMB      84              0.0000000000
     11159        84  POPC      HX            -23.6043481289      -23.9923978189      -14.8646228478  MEMB      84              0.0000000000
     11160        84  POPC      HY            -25.3146508337      -24.0091843139      -14.6713737132  MEMB      84              0.0000000000
     11161        84  POPC      O31           -24.3280898115      -23.2640853036      -12.9508080240  MEMB      84              0.0000000000
     11162        84  POPC      C31           -23.0843777555      -23.3614137852      -12.4304438161  MEMB      84              0.0000000000
     11163        84  POPC      O32           -22.0211910649      -23.5651007301      -13.0090843394  MEMB      84              0.0000000000
     11164        84  POPC      C32           -23.1043725629      -23.1601782308      -10.8931003870  MEMB      84              0.0000000000
     11165        84  POPC      H2X           -23.9400900021      -23.7889606170      -10.5182274341  MEMB      84              0.0000000000
     11166        84  POPC      H2Y           -23.2210259916      -22.0716742713      -10.7037019291  MEMB      84              0.0000000000
     11167        84  POPC      C23           -21.9495516787      -19.3458882966      -12.4906503940  MEMB      84              0.0000000000
     11168        84  POPC      H3R           -22.2484411012      -20.3309038127      -12.0726423259  MEMB      84              0.0000000000
     11169        84  POPC      H3S           -22.8627824875      -18.7242908794      -12.3725510619  MEMB      84              0.0000000000
     11170        84  POPC      C24           -20.6687761973      -18.8567460658      -11.8718877203  MEMB      84              0.0000000000
     11171        84  POPC      H4R           -20.4568058536      -17.8137575497      -12.1905794788  MEMB      84              0.0000000000
     11172        84  POPC      H4S           -19.8717266002      -19.5504071233      -12.2152053529  MEMB      84              0.0000000000
     11173        84  POPC      C25           -20.6115409557      -19.0156344605      -10.3682842400  MEMB      84              0.0000000000
     11174        84  POPC      H5R           -19.5436385670      -18.8353286347      -10.1205043501  MEMB      84              0.0000000000
     11175        84  POPC      H5S           -20.8633456185      -20.0598207988      -10.0843993896  MEMB      84              0.0000000000
     11176        84  POPC      C26           -21.4246833129      -17.9606062589       -9.5990057001  MEMB      84              0.0000000000
     11177        84  POPC      H6R           -22.5209881246      -18.1070198271       -9.7038857855  MEMB      84              0.0000000000
     11178        84  POPC      H6S           -21.0533160975      -16.9834337962       -9.9752257359  MEMB      84              0.0000000000
     11179        84  POPC      C27           -21.1752124617      -17.9350881430       -8.0909999155  MEMB      84              0.0000000000
     11180        84  POPC      H7R           -20.0910876151      -17.8664101732       -7.8580244613  MEMB      84              0.0000000000
     11181        84  POPC      H7S           -21.5615938392      -18.8631222186       -7.6179424779  MEMB      84              0.0000000000
     11182        84  POPC      C28           -21.8772793687      -16.7298874727       -7.3729714072  MEMB      84              0.0000000000
     11183        84  POPC      H8R           -21.2105497980      -15.8444922798       -7.4495703852  MEMB      84              0.0000000000
     11184        84  POPC      H8S           -21.8644041597      -17.0256826279       -6.3021490679  MEMB      84              0.0000000000
     11185        84  POPC      C29           -23.2182203285      -16.4392003330       -7.9050976382  MEMB      84              0.0000000000
     11186        84  POPC      H91           -23.2117186796      -15.6745570256       -8.6958430797  MEMB      84              0.0000000000
     11187        84  POPC      C210          -24.3513609826      -17.0541994921       -7.6027863050  MEMB      84              0.0000000000
     11188        84  POPC      H101          -25.3091135635      -16.7265572433       -8.0333211101  MEMB      84              0.0000000000
     11189        84  POPC      C211          -24.5504690123      -18.1974942358       -6.6386250581  MEMB      84              0.0000000000
     11190        84  POPC      H11R          -23.5966151214      -18.4717693374       -6.1393689103  MEMB      84              0.0000000000
     11191        84  POPC      H11S          -24.9903670961      -19.1312904106       -7.0495204746  MEMB      84              0.0000000000
     11192        84  POPC      C212          -25.4201579524      -17.7369442651       -5.4636994932  MEMB      84              0.0000000000
     11193        84  POPC      H12R          -25.7438619441      -18.6479113333       -4.9162721598  MEMB      84              0.0000000000
     11194        84  POPC      H12S          -26.3530164627      -17.2941717744       -5.8736363336  MEMB      84              0.0000000000
     11195        84  POPC      C213          -24.7570788738      -16.6877933798       -4.5296126192  MEMB      84              0.0000000000
     11196        84  POPC      H13R          -25.5173511539      -16.3280740948       -3.8037276905  MEMB      84              0.0000000000
     11197        84  POPC      H13S          -24.5135062280      -15.8301140244       -5.1924690267  MEMB      84              0.0000000000
     11198        84  POPC      C214          -23.5346645656      -17.2767595589       -3.7539111291  MEMB      84              0.0000000000
     11199        84  POPC      H14R          -22.5396149721      -17.2682488926       -4.2480010587  MEMB      84              0.0000000000
     11200        84  POPC      H14S          -23.8075552520      -18.3130272315       -3.4606520355  MEMB      84              0.0000000000
     11201        84  POPC      C215          -23.2484854973      -16.5315393005       -2.3927812385  MEMB      84              0.0000000000
     11202        84  POPC      H15R          -24.0564496376      -16.7190398328       -1.6536198187  MEMB      84              0.0000000000
     11203        84  POPC      H15S          -22.9964247531      -15.4753943423       -2.6280342208  MEMB      84              0.0000000000
     11204        84  POPC      C216          -21.9643316509      -17.0028381476       -1.7018009466  MEMB      84              0.0000000000
     11205        84  POPC      H16R          -21.7840123452      -16.4601956449       -0.7492537705  MEMB      84              0.0000000000
     11206        84  POPC      H16S          -21.1061872331      -16.7325884053       -2.3536240805  MEMB      84              0.0000000000
     11207        84  POPC      C217          -21.9223999733      -18.5123657016       -1.2913832432  MEMB      84              0.0000000000
     11208        84  POPC      H17R          -21.7803308598      -19.0358742840       -2.2609600979  MEMB      84              0.0000000000
     11209        84  POPC      H17S          -22.9335665307      -18.7463428284       -0.8950040635  MEMB      84              0.0000000000
     11210        84  POPC      C218          -20.7733087991      -18.9762441200       -0.3567190437  MEMB      84              0.0000000000
     11211        84  POPC      H18R          -19.7856214566      -18.8250034798       -0.8424369778  MEMB      84              0.0000000000
     11212        84  POPC      H18S          -20.8924859710      -20.0627876569       -0.1578693478  MEMB      84              0.0000000000
     11213        84  POPC      H18T          -20.8406773169      -18.4870563018        0.6385090489  MEMB      84              0.0000000000
     11214        84  POPC      C33           -21.7376136091      -23.5830687682      -10.3307819682  MEMB      84              0.0000000000
     11215        84  POPC      H3X           -20.8827916456      -23.2010308960      -10.9288184446  MEMB      84              0.0000000000
     11216        84  POPC      H3Y           -21.7209859307      -24.6929514383      -10.2838218164  MEMB      84              0.0000000000
     11217        84  POPC      C34           -21.4396254221      -22.9856370861       -8.9399090690  MEMB      84              0.0000000000
     11218        84  POPC      H4X           -22.1581626108      -23.4148607894       -8.2092973450  MEMB      84              0.0000000000
     11219        84  POPC      H4Y           -21.6799221806      -21.9010256573       -8.9258905623  MEMB      84              0.0000000000
     11220        84  POPC      C35           -20.0629982773      -23.2944775694       -8.4512707913  MEMB      84              0.0000000000
     11221        84  POPC      H5X           -19.2970794589      -22.7010025889       -8.9948488768  MEMB      84              0.0000000000
     11222        84  POPC      H5Y           -19.7847891693      -24.3631269936       -8.5733731737  MEMB      84              0.0000000000
     11223        84  POPC      C36           -19.7953729789      -23.0704301462       -6.9682617694  MEMB      84              0.0000000000
     11224        84  POPC      H6X           -18.7268659486      -23.3211980941       -6.7958397626  MEMB      84              0.0000000000
     11225        84  POPC      H6Y           -20.4662263372      -23.6134650162       -6.2686978362  MEMB      84              0.0000000000
     11226        84  POPC      C37           -19.8257787874      -21.5339437119       -6.6197139227  MEMB      84              0.0000000000
     11227        84  POPC      H7X           -20.8454008561      -21.1027908616       -6.7135168883  MEMB      84              0.0000000000
     11228        84  POPC      H7Y           -19.1471285017      -21.0852725252       -7.3763173746  MEMB      84              0.0000000000
     11229        84  POPC      C38           -19.4575974531      -21.1923183204       -5.2138902679  MEMB      84              0.0000000000
     11230        84  POPC      H8X           -19.7633699265      -20.1535634660       -4.9652687712  MEMB      84              0.0000000000
     11231        84  POPC      H8Y           -18.3607397629      -21.1805911322       -5.0375738074  MEMB      84              0.0000000000
     11232        84  POPC      C39           -20.2137281848      -22.0172275289       -4.1439122847  MEMB      84              0.0000000000
     11233        84  POPC      H9X           -19.7992973553      -21.7192678090       -3.1571050508  MEMB      84              0.0000000000
     11234        84  POPC      H9Y           -19.8994630733      -23.0621666914       -4.3528633446  MEMB      84              0.0000000000
     11235        84  POPC      C310          -21.7393653078      -21.8572740065       -4.0468914007  MEMB      84              0.0000000000
     11236        84  POPC      H10X          -22.1057884707      -21.9785055450       -5.0886967909  MEMB      84              0.0000000000
     11237        84  POPC      H10Y          -22.0071731607      -20.8481337013       -3.6671075403  MEMB      84              0.0000000000
     11238        84  POPC      C311          -22.3289397071      -23.0125013389       -3.2071614886  MEMB      84              0.0000000000
     11239        84  POPC      H11X          -21.6852355185      -23.1908538774       -2.3193799742  MEMB      84              0.0000000000
     11240        84  POPC      H11Y          -22.5287889220      -23.9472406400       -3.7734159308  MEMB      84              0.0000000000
     11241        84  POPC      C312          -23.6650900496      -22.5949078697       -2.5698568033  MEMB      84              0.0000000000
     11242        84  POPC      H12X          -23.2841656720      -21.9943401548       -1.7163134378  MEMB      84              0.0000000000
     11243        84  POPC      H12Y          -24.3113923121      -23.4310911298       -2.2272030621  MEMB      84              0.0000000000
     11244        84  POPC      C313          -24.5933378013      -21.7498557462       -3.4232085010  MEMB      84              0.0000000000
     11245        84  POPC      H13X          -24.6668450400      -22.3362783989       -4.3639662724  MEMB      84              0.0000000000
     11246        84  POPC      H13Y          -24.0629441226      -20.7840908558       -3.5656928899  MEMB      84              0.0000000000
     11247        84  POPC      C314          -26.0563182051      -21.7508987044       -3.0420007718  MEMB      84              0.0000000000
     11248        84  POPC      H14X          -26.3675969500      -22.6881764751       -2.5331419096  MEMB      84              0.0000000000
     11249        84  POPC      H14Y          -26.6111666908      -21.6567631050       -3.9999170216  MEMB      84              0.0000000000
     11250        84  POPC      C315          -26.4206868243      -20.6201328987       -2.0527762067  MEMB      84              0.0000000000
     11251        84  POPC      H15X          -27.5254790610      -20.5294337130       -1.9784213942  MEMB      84              0.0000000000
     11252        84  POPC      H15Y          -26.0682696380      -19.6406557154       -2.4410398535  MEMB      84              0.0000000000
     11253        84  POPC      C316          -25.8088641662      -20.7668399184       -0.6287750681  MEMB      84              0.0000000000
     11254        84  POPC      H16X          -26.0442375210      -19.8790123394       -0.0037299364  MEMB      84              0.0000000000
     11255        84  POPC      H16Y          -24.7120724888      -20.9429784007       -0.6102204926  MEMB      84              0.0000000000
     11256        84  POPC      H16Z          -26.2134291388      -21.6631310601       -0.1117563706  MEMB      84              0.0000000000
     11257        85  POPC      N             -12.4481383713       28.0423723364      -20.8843319491  MEMB      85              0.0000000000
     11258        85  POPC      C12           -12.5008451560       26.5418092313      -20.8363593916  MEMB      85              0.0000000000
     11259        85  POPC      H12A          -11.5423516024       26.1330939069      -21.1203344327  MEMB      85              0.0000000000
     11260        85  POPC      H12B          -13.2020932358       26.2357341578      -21.5985725607  MEMB      85              0.0000000000
     11261        85  POPC      C13           -13.7527789973       28.6532515880      -20.4371827203  MEMB      85              0.0000000000
     11262        85  POPC      H13A          -14.5562883857       28.0705212775      -20.8628564776  MEMB      85              0.0000000000
     11263        85  POPC      H13B          -13.8636693240       28.5933073861      -19.3645644298  MEMB      85              0.0000000000
     11264        85  POPC      H13C          -13.8420300573       29.7042245918      -20.6693250464  MEMB      85              0.0000000000
     11265        85  POPC      C14           -11.3263174640       28.5352053533      -20.0430088606  MEMB      85              0.0000000000
     11266        85  POPC      H14A          -10.4172932783       28.1487107535      -20.4796975058  MEMB      85              0.0000000000
     11267        85  POPC      H14B          -11.3335611105       29.6132153765      -19.9778789463  MEMB      85              0.0000000000
     11268        85  POPC      H14C          -11.3410228087       27.9874331017      -19.1123481715  MEMB      85              0.0000000000
     11269        85  POPC      C15           -12.2508609245       28.3337908498      -22.3568501040  MEMB      85              0.0000000000
     11270        85  POPC      H15A          -12.1218901499       29.3976583641      -22.4908355875  MEMB      85              0.0000000000
     11271        85  POPC      H15B          -13.0684677590       27.9962666524      -22.9765250074  MEMB      85              0.0000000000
     11272        85  POPC      H15C          -11.2892472611       28.0246137668      -22.7390916473  MEMB      85              0.0000000000
     11273        85  POPC      C11           -13.0409404135       25.8049276536      -19.5152881249  MEMB      85              0.0000000000
     11274        85  POPC      H11A          -13.1121304540       24.7422608011      -19.8315034789  MEMB      85              0.0000000000
     11275        85  POPC      H11B          -14.0448949980       26.1565871265      -19.1947699773  MEMB      85              0.0000000000
     11276        85  POPC      P             -12.4136681497       25.5778828031      -16.9787943257  MEMB      85              0.0000000000
     11277        85  POPC      O13           -11.7289175219       24.3165897970      -16.6273484991  MEMB      85              0.0000000000
     11278        85  POPC      O14           -13.8180678621       25.7310237878      -16.6067921945  MEMB      85              0.0000000000
     11279        85  POPC      O12           -12.1186031183       26.0343378999      -18.4530740560  MEMB      85              0.0000000000
     11280        85  POPC      O11           -11.6808314196       26.6624187043      -16.2609697750  MEMB      85              0.0000000000
     11281        85  POPC      C1            -11.0795684023       27.7762796214      -16.9284855544  MEMB      85              0.0000000000
     11282        85  POPC      HA            -11.9313895533       28.4035503917      -17.2679749752  MEMB      85              0.0000000000
     11283        85  POPC      HB            -10.4132556327       27.4142159311      -17.7404326604  MEMB      85              0.0000000000
     11284        85  POPC      C2            -10.3025287501       28.4753398476      -15.7665372637  MEMB      85              0.0000000000
     11285        85  POPC      HS             -9.5918723560       29.1348128983      -16.3091089108  MEMB      85              0.0000000000
     11286        85  POPC      O21            -9.6536096072       27.5189989471      -14.9344119279  MEMB      85              0.0000000000
     11287        85  POPC      C21            -8.7952320809       26.6966756679      -15.5283257183  MEMB      85              0.0000000000
     11288        85  POPC      O22            -8.3419675379       26.7932383651      -16.6536381489  MEMB      85              0.0000000000
     11289        85  POPC      C22            -8.7097710353       25.3768516933      -14.7080658484  MEMB      85              0.0000000000
     11290        85  POPC      H2R            -8.0971040485       24.6228610070      -15.2470077651  MEMB      85              0.0000000000
     11291        85  POPC      H2S            -9.6873602713       24.8585442095      -14.6080772302  MEMB      85              0.0000000000
     11292        85  POPC      C3            -11.1690758652       29.3535926727      -14.8096409033  MEMB      85              0.0000000000
     11293        85  POPC      HX            -11.5804715380       30.1419765589      -15.4756177632  MEMB      85              0.0000000000
     11294        85  POPC      HY            -10.4752224861       29.6663302673      -14.0002681961  MEMB      85              0.0000000000
     11295        85  POPC      O31           -12.2972098893       28.6189825376      -14.2156903339  MEMB      85              0.0000000000
     11296        85  POPC      C31           -13.5855906242       29.1042288287      -14.2386293098  MEMB      85              0.0000000000
     11297        85  POPC      O32           -13.8831004391       30.1713336971      -14.7049806820  MEMB      85              0.0000000000
     11298        85  POPC      C32           -14.5038477708       28.0797421063      -13.8412078022  MEMB      85              0.0000000000
     11299        85  POPC      H2X           -14.1922763299       27.1735835102      -14.4034537240  MEMB      85              0.0000000000
     11300        85  POPC      H2Y           -15.5193398806       28.4500606006      -14.0980361349  MEMB      85              0.0000000000
     11301        85  POPC      C23            -8.2484192181       25.5765953508      -13.2185533939  MEMB      85              0.0000000000
     11302        85  POPC      H3R            -7.3924084507       26.2620620923      -13.0405035509  MEMB      85              0.0000000000
     11303        85  POPC      H3S            -7.8815139302       24.5980171265      -12.8416102056  MEMB      85              0.0000000000
     11304        85  POPC      C24            -9.3497465787       25.9788427579      -12.1715445545  MEMB      85              0.0000000000
     11305        85  POPC      H4R           -10.0768886723       25.1531882787      -12.0170132806  MEMB      85              0.0000000000
     11306        85  POPC      H4S            -9.9742038814       26.8719355676      -12.3877838667  MEMB      85              0.0000000000
     11307        85  POPC      C25            -8.7877381704       26.1677816228      -10.7747146629  MEMB      85              0.0000000000
     11308        85  POPC      H5R            -8.4200222755       27.2153822426      -10.8151971125  MEMB      85              0.0000000000
     11309        85  POPC      H5S            -7.9725399580       25.4238263072      -10.6470297162  MEMB      85              0.0000000000
     11310        85  POPC      C26            -9.9056192467       26.0658223180       -9.7436860244  MEMB      85              0.0000000000
     11311        85  POPC      H6R           -10.1043049103       24.9782717179       -9.6337826306  MEMB      85              0.0000000000
     11312        85  POPC      H6S           -10.8669221063       26.4999532119      -10.0926106391  MEMB      85              0.0000000000
     11313        85  POPC      C27            -9.5070672329       26.4171482728       -8.3482299080  MEMB      85              0.0000000000
     11314        85  POPC      H7R            -8.7253631351       25.6776904563       -8.0717126352  MEMB      85              0.0000000000
     11315        85  POPC      H7S           -10.4200059263       26.2286287065       -7.7438088372  MEMB      85              0.0000000000
     11316        85  POPC      C28            -8.8945395868       27.7894200783       -8.1344591213  MEMB      85              0.0000000000
     11317        85  POPC      H8R            -7.9378388759       27.7220903273       -8.6952720703  MEMB      85              0.0000000000
     11318        85  POPC      H8S            -8.7069300464       27.8587017774       -7.0416086321  MEMB      85              0.0000000000
     11319        85  POPC      C29            -9.7797127215       28.8824582488       -8.5257677885  MEMB      85              0.0000000000
     11320        85  POPC      H91            -9.5656454694       29.2116303596       -9.5532999691  MEMB      85              0.0000000000
     11321        85  POPC      C210          -10.8324726729       29.3587787602       -7.8495211803  MEMB      85              0.0000000000
     11322        85  POPC      H101          -11.4212192104       30.1461523402       -8.3428983260  MEMB      85              0.0000000000
     11323        85  POPC      C211          -11.2657391980       28.8536787708       -6.5144881598  MEMB      85              0.0000000000
     11324        85  POPC      H11R          -10.4791065429       28.1534804999       -6.1605773507  MEMB      85              0.0000000000
     11325        85  POPC      H11S          -12.2112670606       28.2704970388       -6.5285193289  MEMB      85              0.0000000000
     11326        85  POPC      C212          -11.6154705419       29.8446498613       -5.3294087977  MEMB      85              0.0000000000
     11327        85  POPC      H12R          -12.0829378835       29.3613344559       -4.4449866810  MEMB      85              0.0000000000
     11328        85  POPC      H12S          -12.3147000048       30.6031994526       -5.7417211846  MEMB      85              0.0000000000
     11329        85  POPC      C213          -10.4234545480       30.6458524024       -4.8040330566  MEMB      85              0.0000000000
     11330        85  POPC      H13R           -9.8212738608       30.8626517411       -5.7121623748  MEMB      85              0.0000000000
     11331        85  POPC      H13S           -9.9379232159       29.9788659307       -4.0599171388  MEMB      85              0.0000000000
     11332        85  POPC      C214          -10.8134323233       31.9476387783       -4.0384854464  MEMB      85              0.0000000000
     11333        85  POPC      H14R          -11.5719215933       32.6446268937       -4.4546856304  MEMB      85              0.0000000000
     11334        85  POPC      H14S           -9.8706873938       32.5316681069       -3.9716819288  MEMB      85              0.0000000000
     11335        85  POPC      C215          -11.3614919116       31.6740410603       -2.5935006163  MEMB      85              0.0000000000
     11336        85  POPC      H15R          -10.8586597516       32.3879946767       -1.9066581018  MEMB      85              0.0000000000
     11337        85  POPC      H15S          -10.9897895272       30.6590230263       -2.3367959090  MEMB      85              0.0000000000
     11338        85  POPC      C216          -12.8495623162       31.6868722950       -2.3459492563  MEMB      85              0.0000000000
     11339        85  POPC      H16R          -13.4346339051       31.0391906801       -3.0333517632  MEMB      85              0.0000000000
     11340        85  POPC      H16S          -13.2085789858       32.7340285606       -2.4402420772  MEMB      85              0.0000000000
     11341        85  POPC      C217          -13.3167484289       31.3225501286       -0.9302639479  MEMB      85              0.0000000000
     11342        85  POPC      H17R          -13.1861220168       30.2279160148       -0.7922990041  MEMB      85              0.0000000000
     11343        85  POPC      H17S          -14.4039615303       31.5389758231       -0.8564498195  MEMB      85              0.0000000000
     11344        85  POPC      C218          -12.6101921894       32.1438215029        0.2299247682  MEMB      85              0.0000000000
     11345        85  POPC      H18R          -12.9969180341       31.8692477741        1.2346013209  MEMB      85              0.0000000000
     11346        85  POPC      H18S          -12.7474941245       33.1907179694       -0.1157292342  MEMB      85              0.0000000000
     11347        85  POPC      H18T          -11.5191241402       31.9343228875        0.2313786211  MEMB      85              0.0000000000
     11348        85  POPC      C33           -14.4748998765       27.6742084349      -12.3230832175  MEMB      85              0.0000000000
     11349        85  POPC      H3X           -14.7840974280       28.6181556751      -11.8254067857  MEMB      85              0.0000000000
     11350        85  POPC      H3Y           -13.4132604176       27.5129266454      -12.0380730772  MEMB      85              0.0000000000
     11351        85  POPC      C34           -15.4645273945       26.5516255106      -11.9853852599  MEMB      85              0.0000000000
     11352        85  POPC      H4X           -15.0687638838       25.7221750831      -12.6096480286  MEMB      85              0.0000000000
     11353        85  POPC      H4Y           -16.3811933568       26.9809233848      -12.4433673815  MEMB      85              0.0000000000
     11354        85  POPC      C35           -15.6362552717       26.2644867609      -10.4737979302  MEMB      85              0.0000000000
     11355        85  POPC      H5X           -16.5781644624       25.7232593069      -10.2409859632  MEMB      85              0.0000000000
     11356        85  POPC      H5Y           -15.5726489707       27.2246433688       -9.9184829170  MEMB      85              0.0000000000
     11357        85  POPC      C36           -14.4924903694       25.4391047211       -9.9664190777  MEMB      85              0.0000000000
     11358        85  POPC      H6X           -13.5256429924       25.9294284546      -10.2095438874  MEMB      85              0.0000000000
     11359        85  POPC      H6Y           -14.4957659388       24.3893125238      -10.3300761993  MEMB      85              0.0000000000
     11360        85  POPC      C37           -14.6011627908       25.3398076892       -8.4319304325  MEMB      85              0.0000000000
     11361        85  POPC      H7X           -15.4741409437       24.7084659395       -8.1605673644  MEMB      85              0.0000000000
     11362        85  POPC      H7Y           -14.7752681753       26.3544984360       -8.0143044264  MEMB      85              0.0000000000
     11363        85  POPC      C38           -13.4029495291       24.6691740350       -7.7241260073  MEMB      85              0.0000000000
     11364        85  POPC      H8X           -12.4812399876       25.2552662282       -7.9272731136  MEMB      85              0.0000000000
     11365        85  POPC      H8Y           -13.2209762906       23.6840876894       -8.2045533691  MEMB      85              0.0000000000
     11366        85  POPC      C39           -13.7208196856       24.5768225206       -6.1948901518  MEMB      85              0.0000000000
     11367        85  POPC      H9X           -14.6249660616       23.9510359878       -6.0360480653  MEMB      85              0.0000000000
     11368        85  POPC      H9Y           -13.9789020855       25.5735632256       -5.7774896505  MEMB      85              0.0000000000
     11369        85  POPC      C310          -12.6044277952       23.8512903204       -5.3730288812  MEMB      85              0.0000000000
     11370        85  POPC      H10X          -12.3537386705       22.9088935760       -5.9053487546  MEMB      85              0.0000000000
     11371        85  POPC      H10Y          -13.0735012494       23.4419109057       -4.4528664752  MEMB      85              0.0000000000
     11372        85  POPC      C311          -11.3347136663       24.6722245547       -5.2339299406  MEMB      85              0.0000000000
     11373        85  POPC      H11X          -10.9376637714       24.9604640901       -6.2307200533  MEMB      85              0.0000000000
     11374        85  POPC      H11Y          -10.5692909219       24.0386042194       -4.7369652760  MEMB      85              0.0000000000
     11375        85  POPC      C312          -11.4015295347       25.8857332601       -4.3543564103  MEMB      85              0.0000000000
     11376        85  POPC      H12X          -11.9347774130       26.7142821860       -4.8676542266  MEMB      85              0.0000000000
     11377        85  POPC      H12Y          -10.3493046898       26.2086892715       -4.2032171818  MEMB      85              0.0000000000
     11378        85  POPC      C313          -12.0619393278       25.6054961067       -2.9601832860  MEMB      85              0.0000000000
     11379        85  POPC      H13X          -11.5719708938       24.7122839005       -2.5169857425  MEMB      85              0.0000000000
     11380        85  POPC      H13Y          -13.1325339505       25.3303588663       -3.0717533742  MEMB      85              0.0000000000
     11381        85  POPC      C314          -11.6682978684       26.6851820381       -1.9324168116  MEMB      85              0.0000000000
     11382        85  POPC      H14X          -11.2303147943       27.6187998337       -2.3457570051  MEMB      85              0.0000000000
     11383        85  POPC      H14Y          -10.8333217666       26.2551652418       -1.3389338067  MEMB      85              0.0000000000
     11384        85  POPC      C315          -12.7401615276       27.1111267203       -0.9295136354  MEMB      85              0.0000000000
     11385        85  POPC      H15X          -12.2400707833       27.8857906341       -0.3097357172  MEMB      85              0.0000000000
     11386        85  POPC      H15Y          -13.0891568032       26.2262344462       -0.3555025852  MEMB      85              0.0000000000
     11387        85  POPC      C316          -14.0467849765       27.8213628814       -1.4378295160  MEMB      85              0.0000000000
     11388        85  POPC      H16X          -13.6771698282       28.5957711184       -2.1435197325  MEMB      85              0.0000000000
     11389        85  POPC      H16Y          -14.6959901896       28.2403096066       -0.6394963284  MEMB      85              0.0000000000
     11390        85  POPC      H16Z          -14.6543891551       27.1940600263       -2.1245834127  MEMB      85              0.0000000000
     11391        86  POPC      N              22.5866514832       23.0244910173      -20.1014700799  MEMB      86              0.0000000000
     11392        86  POPC      C12            21.5660849623       21.9407528005      -19.8161072540  MEMB      86              0.0000000000
     11393        86  POPC      H12A           21.9338688347       21.2669264845      -19.0564408100  MEMB      86              0.0000000000
     11394        86  POPC      H12B           21.3810284499       21.4020344137      -20.7336782948  MEMB      86              0.0000000000
     11395        86  POPC      C13            21.8950699803       24.0803063255      -20.8712912368  MEMB      86              0.0000000000
     11396        86  POPC      H13A           21.0931006120       24.5995108312      -20.3676326998  MEMB      86              0.0000000000
     11397        86  POPC      H13B           22.6889419195       24.7784200670      -21.0922082877  MEMB      86              0.0000000000
     11398        86  POPC      H13C           21.4331749051       23.7642606247      -21.7949621509  MEMB      86              0.0000000000
     11399        86  POPC      C14            23.1104835451       23.6243875364      -18.9416558153  MEMB      86              0.0000000000
     11400        86  POPC      H14A           22.3561060669       24.0482965421      -18.2954238944  MEMB      86              0.0000000000
     11401        86  POPC      H14B           23.6725963132       22.8840648527      -18.3917905997  MEMB      86              0.0000000000
     11402        86  POPC      H14C           23.8673611358       24.3250500688      -19.2619807811  MEMB      86              0.0000000000
     11403        86  POPC      C15            23.6777793118       22.4351597696      -20.9979661336  MEMB      86              0.0000000000
     11404        86  POPC      H15A           23.2895941801       21.9845923603      -21.8994655786  MEMB      86              0.0000000000
     11405        86  POPC      H15B           24.1482759716       21.6073762873      -20.4882528996  MEMB      86              0.0000000000
     11406        86  POPC      H15C           24.3358981717       23.2568768499      -21.2389240465  MEMB      86              0.0000000000
     11407        86  POPC      C11            20.0758254053       22.3927712588      -19.4292375367  MEMB      86              0.0000000000
     11408        86  POPC      H11A           19.6391451464       21.4169803321      -19.1268082575  MEMB      86              0.0000000000
     11409        86  POPC      H11B           19.5999507847       22.6947177115      -20.3866782537  MEMB      86              0.0000000000
     11410        86  POPC      P              18.5765109324       23.5133521303      -17.8250747922  MEMB      86              0.0000000000
     11411        86  POPC      O13            17.9066420754       22.1544393167      -17.6235823924  MEMB      86              0.0000000000
     11412        86  POPC      O14            17.8476699350       24.5936378748      -18.6231435302  MEMB      86              0.0000000000
     11413        86  POPC      O12            20.0011442594       23.3702813815      -18.3859170692  MEMB      86              0.0000000000
     11414        86  POPC      O11            18.8030944132       24.2036184884      -16.3845541989  MEMB      86              0.0000000000
     11415        86  POPC      C1             19.6896281277       25.3230109548      -16.3172077527  MEMB      86              0.0000000000
     11416        86  POPC      HA             19.8519145056       25.8416546638      -17.2862242661  MEMB      86              0.0000000000
     11417        86  POPC      HB             20.6445230283       24.8225993302      -16.0487213386  MEMB      86              0.0000000000
     11418        86  POPC      C2             19.3298352605       26.3817871939      -15.3437402597  MEMB      86              0.0000000000
     11419        86  POPC      HS             19.9869769396       27.2643244158      -15.4974073667  MEMB      86              0.0000000000
     11420        86  POPC      O21            19.4136297973       26.0482338561      -13.9635904336  MEMB      86              0.0000000000
     11421        86  POPC      C21            20.6021574601       25.7355282913      -13.5280768129  MEMB      86              0.0000000000
     11422        86  POPC      O22            21.6945546399       25.8513231078      -14.0951841485  MEMB      86              0.0000000000
     11423        86  POPC      C22            20.5255554145       25.2931069004      -12.0410414833  MEMB      86              0.0000000000
     11424        86  POPC      H2R            19.5358984916       25.5840622294      -11.6284340792  MEMB      86              0.0000000000
     11425        86  POPC      H2S            21.2423064161       25.8690428759      -11.4174338880  MEMB      86              0.0000000000
     11426        86  POPC      C3             17.8909904179       26.8528754372      -15.5883155061  MEMB      86              0.0000000000
     11427        86  POPC      HX             17.8743739637       27.3469536964      -16.5832687957  MEMB      86              0.0000000000
     11428        86  POPC      HY             17.7751460315       27.6905772475      -14.8677899477  MEMB      86              0.0000000000
     11429        86  POPC      O31            16.8204830144       25.9055939856      -15.4526593153  MEMB      86              0.0000000000
     11430        86  POPC      C31            16.3714422777       25.7085886094      -14.1886603066  MEMB      86              0.0000000000
     11431        86  POPC      O32            16.6787131625       26.3511388919      -13.2094016928  MEMB      86              0.0000000000
     11432        86  POPC      C32            15.6035660852       24.4293149632      -14.0196086734  MEMB      86              0.0000000000
     11433        86  POPC      H2X            16.2690242808       23.6189851106      -13.6523871818  MEMB      86              0.0000000000
     11434        86  POPC      H2Y            15.1431598149       24.1774012077      -14.9988362274  MEMB      86              0.0000000000
     11435        86  POPC      C23            20.7995686307       23.7094165385      -11.9225187619  MEMB      86              0.0000000000
     11436        86  POPC      H3R            20.8469319688       23.4632338527      -10.8401732166  MEMB      86              0.0000000000
     11437        86  POPC      H3S            21.7454092995       23.3939006435      -12.4125759635  MEMB      86              0.0000000000
     11438        86  POPC      C24            19.5903292278       22.8892277939      -12.5291256242  MEMB      86              0.0000000000
     11439        86  POPC      H4R            20.0058034647       22.0836402394      -13.1715670346  MEMB      86              0.0000000000
     11440        86  POPC      H4S            19.0082709346       23.5199272311      -13.2346378731  MEMB      86              0.0000000000
     11441        86  POPC      C25            18.4688460494       22.3262401684      -11.5613933297  MEMB      86              0.0000000000
     11442        86  POPC      H5R            17.5692927101       22.9772476042      -11.5976449005  MEMB      86              0.0000000000
     11443        86  POPC      H5S            18.8884855658       22.3821307304      -10.5342129210  MEMB      86              0.0000000000
     11444        86  POPC      C26            18.2763796091       20.7449647004      -11.8618324266  MEMB      86              0.0000000000
     11445        86  POPC      H6R            19.3111754385       20.3587544477      -11.9816653211  MEMB      86              0.0000000000
     11446        86  POPC      H6S            17.8637206892       20.5497593435      -12.8747136922  MEMB      86              0.0000000000
     11447        86  POPC      C27            17.3818818692       20.0318546717      -10.8121878612  MEMB      86              0.0000000000
     11448        86  POPC      H7R            17.0219180626       19.0993445715      -11.2971331410  MEMB      86              0.0000000000
     11449        86  POPC      H7S            16.4782949369       20.5724716194      -10.4578077320  MEMB      86              0.0000000000
     11450        86  POPC      C28            18.1610603963       19.6532677350       -9.5588977523  MEMB      86              0.0000000000
     11451        86  POPC      H8R            18.6867147668       20.5790588147       -9.2412198780  MEMB      86              0.0000000000
     11452        86  POPC      H8S            19.1060650468       19.1475516941       -9.8513679725  MEMB      86              0.0000000000
     11453        86  POPC      C29            17.3962403447       18.9599137227       -8.4390271888  MEMB      86              0.0000000000
     11454        86  POPC      H91            17.4420106392       17.8654658037       -8.5394712322  MEMB      86              0.0000000000
     11455        86  POPC      C210           16.9712233761       19.4875075677       -7.2892317935  MEMB      86              0.0000000000
     11456        86  POPC      H101           16.4793716292       18.8175864845       -6.5686153008  MEMB      86              0.0000000000
     11457        86  POPC      C211           17.2316221620       20.9544431838       -6.9297043257  MEMB      86              0.0000000000
     11458        86  POPC      H11R           16.2482229641       21.3372512540       -6.5822770575  MEMB      86              0.0000000000
     11459        86  POPC      H11S           17.6325493566       21.6156717144       -7.7274226303  MEMB      86              0.0000000000
     11460        86  POPC      C212           18.2121383675       21.1036839770       -5.8408805270  MEMB      86              0.0000000000
     11461        86  POPC      H12R           17.9105196492       20.6372936837       -4.8786811507  MEMB      86              0.0000000000
     11462        86  POPC      H12S           18.1477878858       22.1792800078       -5.5701897900  MEMB      86              0.0000000000
     11463        86  POPC      C213           19.6578434079       20.8312561255       -6.2112383002  MEMB      86              0.0000000000
     11464        86  POPC      H13R           20.0129524117       21.5162358170       -7.0106261545  MEMB      86              0.0000000000
     11465        86  POPC      H13S           19.7991210817       19.8250282875       -6.6605346040  MEMB      86              0.0000000000
     11466        86  POPC      C214           20.5182611051       20.9601109858       -4.9795717588  MEMB      86              0.0000000000
     11467        86  POPC      H14R           20.0424743116       20.3853758083       -4.1563900637  MEMB      86              0.0000000000
     11468        86  POPC      H14S           20.5430984400       22.0267428869       -4.6697323320  MEMB      86              0.0000000000
     11469        86  POPC      C215           21.9642591388       20.7005868614       -5.2265253467  MEMB      86              0.0000000000
     11470        86  POPC      H15R           22.4892532681       21.4098680527       -5.9015227859  MEMB      86              0.0000000000
     11471        86  POPC      H15S           22.0691880590       19.7377826183       -5.7708771839  MEMB      86              0.0000000000
     11472        86  POPC      C216           22.7787363145       20.5508882399       -3.9637522575  MEMB      86              0.0000000000
     11473        86  POPC      H16R           23.8404665421       20.5452928932       -4.2908881802  MEMB      86              0.0000000000
     11474        86  POPC      H16S           22.6084418935       19.5416732155       -3.5315408743  MEMB      86              0.0000000000
     11475        86  POPC      C217           22.6016922884       21.5921941450       -2.8483416745  MEMB      86              0.0000000000
     11476        86  POPC      H17R           22.3600053595       22.5795362129       -3.2967436285  MEMB      86              0.0000000000
     11477        86  POPC      H17S           23.5501784307       21.8748869015       -2.3435846429  MEMB      86              0.0000000000
     11478        86  POPC      C218           21.4649608997       21.3253353529       -1.8029258644  MEMB      86              0.0000000000
     11479        86  POPC      H18R           21.8500336881       20.5968637604       -1.0576949282  MEMB      86              0.0000000000
     11480        86  POPC      H18S           20.5248487715       20.9444911267       -2.2562111027  MEMB      86              0.0000000000
     11481        86  POPC      H18T           21.2983837557       22.3317752675       -1.3628666827  MEMB      86              0.0000000000
     11482        86  POPC      C33            14.4212453743       24.4823744833      -12.9437527065  MEMB      86              0.0000000000
     11483        86  POPC      H3X            13.8640056188       23.5906504578      -13.3024080603  MEMB      86              0.0000000000
     11484        86  POPC      H3Y            13.8163482810       25.3968557060      -13.1230418141  MEMB      86              0.0000000000
     11485        86  POPC      C34            14.7030838307       24.1645075087      -11.5122502803  MEMB      86              0.0000000000
     11486        86  POPC      H4X            15.6328494167       23.5897227407      -11.3135568292  MEMB      86              0.0000000000
     11487        86  POPC      H4Y            13.8953541660       23.4606432263      -11.2181951088  MEMB      86              0.0000000000
     11488        86  POPC      C35            14.8166573419       25.4412916286      -10.7319354851  MEMB      86              0.0000000000
     11489        86  POPC      H5X            13.9721748918       26.1302546495      -10.9475753517  MEMB      86              0.0000000000
     11490        86  POPC      H5Y            15.7143639649       26.0091828672      -11.0574254076  MEMB      86              0.0000000000
     11491        86  POPC      C36            14.8608412535       25.2571929517       -9.1685023927  MEMB      86              0.0000000000
     11492        86  POPC      H6X            14.0599461077       24.6024222984       -8.7633326175  MEMB      86              0.0000000000
     11493        86  POPC      H6Y            14.7468682686       26.2461729684       -8.6752995733  MEMB      86              0.0000000000
     11494        86  POPC      C37            16.2547468903       24.6490095954       -8.6533916864  MEMB      86              0.0000000000
     11495        86  POPC      H7X            16.3230644418       23.5453362617       -8.7609032128  MEMB      86              0.0000000000
     11496        86  POPC      H7Y            16.1664540042       24.6539302517       -7.5459159499  MEMB      86              0.0000000000
     11497        86  POPC      C38            17.5354357874       25.4762186723       -9.0495912404  MEMB      86              0.0000000000
     11498        86  POPC      H8X            17.3903696262       26.4823024682       -8.6011803873  MEMB      86              0.0000000000
     11499        86  POPC      H8Y            17.6508495183       25.5613011305      -10.1512992534  MEMB      86              0.0000000000
     11500        86  POPC      C39            18.8021146460       24.8967667281       -8.4270949438  MEMB      86              0.0000000000
     11501        86  POPC      H9X            19.1589173978       24.0246305579       -9.0156451104  MEMB      86              0.0000000000
     11502        86  POPC      H9Y            18.5411359402       24.6165089955       -7.3841818398  MEMB      86              0.0000000000
     11503        86  POPC      C310           20.0058536415       25.9054608636       -8.4553347208  MEMB      86              0.0000000000
     11504        86  POPC      H10X           19.7687653418       26.8526497679       -7.9252943099  MEMB      86              0.0000000000
     11505        86  POPC      H10Y           20.1515248588       26.2395476868       -9.5048517746  MEMB      86              0.0000000000
     11506        86  POPC      C311           21.2168942803       25.1410147052       -7.9995073062  MEMB      86              0.0000000000
     11507        86  POPC      H11X           22.1901180599       25.6198189705       -8.2401366628  MEMB      86              0.0000000000
     11508        86  POPC      H11Y           21.2801373228       24.2040632067       -8.5931774727  MEMB      86              0.0000000000
     11509        86  POPC      C312           21.2284888072       24.6947099218       -6.5221592300  MEMB      86              0.0000000000
     11510        86  POPC      H12X           21.9051660456       23.8144058622       -6.4835094323  MEMB      86              0.0000000000
     11511        86  POPC      H12Y           20.1919271025       24.3636692042       -6.2979438314  MEMB      86              0.0000000000
     11512        86  POPC      C313           21.6157698314       25.8518048985       -5.6178372114  MEMB      86              0.0000000000
     11513        86  POPC      H13X           20.7772548645       26.5720218353       -5.7296448256  MEMB      86              0.0000000000
     11514        86  POPC      H13Y           22.5819027026       26.2047572614       -6.0377565999  MEMB      86              0.0000000000
     11515        86  POPC      C314           21.7262190025       25.5502959445       -4.1560968707  MEMB      86              0.0000000000
     11516        86  POPC      H14X           22.1853728817       26.4384167059       -3.6715969054  MEMB      86              0.0000000000
     11517        86  POPC      H14Y           22.3596757289       24.6483580449       -4.0162337457  MEMB      86              0.0000000000
     11518        86  POPC      C315           20.4985304162       25.3134327793       -3.4025425538  MEMB      86              0.0000000000
     11519        86  POPC      H15X           20.1971848965       24.2731112820       -3.6500150211  MEMB      86              0.0000000000
     11520        86  POPC      H15Y           19.7128257481       25.9680681097       -3.8366409091  MEMB      86              0.0000000000
     11521        86  POPC      C316           20.6499054373       25.4573570604       -1.9210697806  MEMB      86              0.0000000000
     11522        86  POPC      H16X           19.7697990078       25.1708982919       -1.3065173899  MEMB      86              0.0000000000
     11523        86  POPC      H16Y           20.7369272014       26.5228709290       -1.6187002338  MEMB      86              0.0000000000
     11524        86  POPC      H16Z           21.5169310983       24.8411354207       -1.6003540255  MEMB      86              0.0000000000
     11525        87  POPC      N             -28.9967428642      -10.8896493996      -19.7143723079  MEMB      87              0.0000000000
     11526        87  POPC      C12           -28.9600079436      -11.4360340777      -18.3022415227  MEMB      87              0.0000000000
     11527        87  POPC      H12A          -29.3269560839      -10.6257362887      -17.6897331845  MEMB      87              0.0000000000
     11528        87  POPC      H12B          -27.9439934239      -11.6186201428      -17.9847878390  MEMB      87              0.0000000000
     11529        87  POPC      C13           -30.4003260944      -10.2154107371      -19.8707521337  MEMB      87              0.0000000000
     11530        87  POPC      H13A          -30.6184412572       -9.9045619919      -20.8817906798  MEMB      87              0.0000000000
     11531        87  POPC      H13B          -31.1783569588      -10.8158355884      -19.4229151736  MEMB      87              0.0000000000
     11532        87  POPC      H13C          -30.3506554766       -9.3199591679      -19.2690052358  MEMB      87              0.0000000000
     11533        87  POPC      C14           -27.9474988741       -9.7996059139      -19.9351667899  MEMB      87              0.0000000000
     11534        87  POPC      H14A          -28.3841405632       -8.9567332673      -20.4502489798  MEMB      87              0.0000000000
     11535        87  POPC      H14B          -27.5846078384       -9.5756860827      -18.9429118274  MEMB      87              0.0000000000
     11536        87  POPC      H14C          -27.1189773792      -10.2337929913      -20.4750125998  MEMB      87              0.0000000000
     11537        87  POPC      C15           -28.6924115308      -11.9427560549      -20.7057959836  MEMB      87              0.0000000000
     11538        87  POPC      H15A          -29.0673112875      -11.6372020170      -21.6714495855  MEMB      87              0.0000000000
     11539        87  POPC      H15B          -29.2879736102      -12.8252384917      -20.5243276616  MEMB      87              0.0000000000
     11540        87  POPC      H15C          -27.6890798834      -12.3137128445      -20.5570792468  MEMB      87              0.0000000000
     11541        87  POPC      C11           -29.7394651648      -12.7371247578      -17.8564120961  MEMB      87              0.0000000000
     11542        87  POPC      H11A          -30.8302935931      -12.5272868408      -17.8759696085  MEMB      87              0.0000000000
     11543        87  POPC      H11B          -29.5062522683      -12.9910004624      -16.8002492377  MEMB      87              0.0000000000
     11544        87  POPC      P             -30.4260994839      -15.1066875999      -18.5893214093  MEMB      87              0.0000000000
     11545        87  POPC      O13           -29.8358222877      -16.2351812932      -19.2791707584  MEMB      87              0.0000000000
     11546        87  POPC      O14           -31.7602152779      -14.6359025490      -19.1103278331  MEMB      87              0.0000000000
     11547        87  POPC      O12           -29.3672674516      -13.8713863322      -18.6329090729  MEMB      87              0.0000000000
     11548        87  POPC      O11           -30.6937240341      -15.4041281865      -17.0035300877  MEMB      87              0.0000000000
     11549        87  POPC      C1            -29.4745628778      -15.6971590933      -16.3148920012  MEMB      87              0.0000000000
     11550        87  POPC      HA            -29.2000757093      -14.8934069085      -15.5986795747  MEMB      87              0.0000000000
     11551        87  POPC      HB            -28.5428729855      -15.7973783385      -16.9117427887  MEMB      87              0.0000000000
     11552        87  POPC      C2            -29.6334959773      -17.0587313282      -15.5317584403  MEMB      87              0.0000000000
     11553        87  POPC      HS            -29.4650838194      -17.7824975432      -16.3576644789  MEMB      87              0.0000000000
     11554        87  POPC      O21           -30.9637469599      -17.1297146442      -14.9349726658  MEMB      87              0.0000000000
     11555        87  POPC      C21           -31.2141158215      -18.2705641747      -14.2127345681  MEMB      87              0.0000000000
     11556        87  POPC      O22           -30.5996665784      -19.3261506960      -14.2821662791  MEMB      87              0.0000000000
     11557        87  POPC      C22           -32.3477988402      -17.9052939660      -13.2642181068  MEMB      87              0.0000000000
     11558        87  POPC      H2R           -32.8096237831      -18.8162551123      -12.8269667902  MEMB      87              0.0000000000
     11559        87  POPC      H2S           -33.1332829408      -17.4779733256      -13.9235605786  MEMB      87              0.0000000000
     11560        87  POPC      C3            -28.5920602936      -17.1980699606      -14.4349178556  MEMB      87              0.0000000000
     11561        87  POPC      HX            -27.6269040407      -17.3229732953      -14.9708223609  MEMB      87              0.0000000000
     11562        87  POPC      HY            -28.6415095401      -18.1173403768      -13.8129714628  MEMB      87              0.0000000000
     11563        87  POPC      O31           -28.6090660730      -15.9802728234      -13.5710760118  MEMB      87              0.0000000000
     11564        87  POPC      C31           -27.5248831103      -15.7608501306      -12.9142323100  MEMB      87              0.0000000000
     11565        87  POPC      O32           -26.4592226400      -16.3436059589      -13.0559901948  MEMB      87              0.0000000000
     11566        87  POPC      C32           -27.7358323947      -14.4716379405      -12.0710593593  MEMB      87              0.0000000000
     11567        87  POPC      H2X           -28.4840232429      -14.6760688493      -11.2756102112  MEMB      87              0.0000000000
     11568        87  POPC      H2Y           -28.1476133592      -13.7479170181      -12.8065764986  MEMB      87              0.0000000000
     11569        87  POPC      C23           -31.8762671051      -16.8988366487      -12.2193788949  MEMB      87              0.0000000000
     11570        87  POPC      H3R           -32.7397258368      -16.4836651502      -11.6568909682  MEMB      87              0.0000000000
     11571        87  POPC      H3S           -31.3467382308      -16.0702995980      -12.7365306943  MEMB      87              0.0000000000
     11572        87  POPC      C24           -31.0635914507      -17.5834324462      -11.1221765202  MEMB      87              0.0000000000
     11573        87  POPC      H4R           -30.2276802266      -18.1671855762      -11.5635447206  MEMB      87              0.0000000000
     11574        87  POPC      H4S           -31.5817393201      -18.3765875981      -10.5418769081  MEMB      87              0.0000000000
     11575        87  POPC      C25           -30.5626022682      -16.5506374434      -10.1024724832  MEMB      87              0.0000000000
     11576        87  POPC      H5R           -31.4301251746      -15.9781733992       -9.7100313063  MEMB      87              0.0000000000
     11577        87  POPC      H5S           -29.8571749870      -15.8817050507      -10.6402669673  MEMB      87              0.0000000000
     11578        87  POPC      C26           -29.6037990770      -17.2457018722       -9.0676463623  MEMB      87              0.0000000000
     11579        87  POPC      H6R           -28.6180341599      -17.4710619110       -9.5278655767  MEMB      87              0.0000000000
     11580        87  POPC      H6S           -29.8967238805      -18.2625222151       -8.7291320263  MEMB      87              0.0000000000
     11581        87  POPC      C27           -29.4369035195      -16.3355303154       -7.7937923289  MEMB      87              0.0000000000
     11582        87  POPC      H7R           -30.3868321013      -16.2559824947       -7.2231526302  MEMB      87              0.0000000000
     11583        87  POPC      H7S           -29.1885414130      -15.3129039764       -8.1499840593  MEMB      87              0.0000000000
     11584        87  POPC      C28           -28.4256120987      -16.7903291559       -6.7243160962  MEMB      87              0.0000000000
     11585        87  POPC      H8R           -28.5242918066      -16.1687160249       -5.8087939487  MEMB      87              0.0000000000
     11586        87  POPC      H8S           -27.4254155228      -16.6162740972       -7.1755721909  MEMB      87              0.0000000000
     11587        87  POPC      C29           -28.4813441931      -18.1850308457       -6.2051623161  MEMB      87              0.0000000000
     11588        87  POPC      H91           -28.5484528750      -18.8647124405       -7.0674440777  MEMB      87              0.0000000000
     11589        87  POPC      C210          -28.6383783915      -18.7455941872       -4.9114003179  MEMB      87              0.0000000000
     11590        87  POPC      H101          -28.6988466818      -19.8385632191       -4.8029466155  MEMB      87              0.0000000000
     11591        87  POPC      C211          -28.7584637935      -17.9511486899       -3.6542903849  MEMB      87              0.0000000000
     11592        87  POPC      H11R          -28.5483834769      -16.8750523596       -3.8337442249  MEMB      87              0.0000000000
     11593        87  POPC      H11S          -27.8438435432      -18.2046575612       -3.0767739994  MEMB      87              0.0000000000
     11594        87  POPC      C212          -30.0087825906      -18.0241235125       -2.9319433084  MEMB      87              0.0000000000
     11595        87  POPC      H12R          -29.9755610897      -17.4182363107       -2.0012876779  MEMB      87              0.0000000000
     11596        87  POPC      H12S          -30.1838543856      -19.0608144871       -2.5728564341  MEMB      87              0.0000000000
     11597        87  POPC      C213          -31.2298143700      -17.5077226833       -3.7844660928  MEMB      87              0.0000000000
     11598        87  POPC      H13R          -32.1350885735      -17.6107810319       -3.1487155998  MEMB      87              0.0000000000
     11599        87  POPC      H13S          -31.4744798528      -18.1725273220       -4.6403247851  MEMB      87              0.0000000000
     11600        87  POPC      C214          -31.0930525004      -16.0850627813       -4.3161782736  MEMB      87              0.0000000000
     11601        87  POPC      H14R          -30.3522996360      -16.1196008929       -5.1434702610  MEMB      87              0.0000000000
     11602        87  POPC      H14S          -30.7067141637      -15.3775192043       -3.5516871427  MEMB      87              0.0000000000
     11603        87  POPC      C215          -32.4545728591      -15.3518949331       -4.8346149280  MEMB      87              0.0000000000
     11604        87  POPC      H15R          -32.7363718347      -15.9878286766       -5.7009284126  MEMB      87              0.0000000000
     11605        87  POPC      H15S          -32.2623671782      -14.3442961797       -5.2613733073  MEMB      87              0.0000000000
     11606        87  POPC      C216          -33.6112276541      -15.1904895030       -3.8148795265  MEMB      87              0.0000000000
     11607        87  POPC      H16R          -33.3172019409      -15.6598478480       -2.8517736221  MEMB      87              0.0000000000
     11608        87  POPC      H16S          -34.5822852948      -15.5898882092       -4.1779887485  MEMB      87              0.0000000000
     11609        87  POPC      C217          -33.8556149294      -13.6398153213       -3.4992883889  MEMB      87              0.0000000000
     11610        87  POPC      H17R          -34.2828605318      -13.1949645158       -4.4233498338  MEMB      87              0.0000000000
     11611        87  POPC      H17S          -32.8504551935      -13.2431390522       -3.2411745481  MEMB      87              0.0000000000
     11612        87  POPC      C218          -34.8246528857      -13.3710675979       -2.3220632847  MEMB      87              0.0000000000
     11613        87  POPC      H18R          -34.8961155354      -12.2707070846       -2.1863402925  MEMB      87              0.0000000000
     11614        87  POPC      H18S          -34.5493627476      -13.7941841265       -1.3323602230  MEMB      87              0.0000000000
     11615        87  POPC      H18T          -35.8295337810      -13.7850748680       -2.5525686710  MEMB      87              0.0000000000
     11616        87  POPC      C33           -26.5593277647      -14.1144186306      -11.0767493381  MEMB      87              0.0000000000
     11617        87  POPC      H3X           -25.7589094352      -13.6534823877      -11.6941544952  MEMB      87              0.0000000000
     11618        87  POPC      H3Y           -26.2357829882      -15.1158402188      -10.7206673631  MEMB      87              0.0000000000
     11619        87  POPC      C34           -26.9907608399      -13.3804504513       -9.8519676714  MEMB      87              0.0000000000
     11620        87  POPC      H4X           -27.8266475709      -13.9267394976       -9.3649527556  MEMB      87              0.0000000000
     11621        87  POPC      H4Y           -27.4263876177      -12.3865581585      -10.0901444592  MEMB      87              0.0000000000
     11622        87  POPC      C35           -25.9382303074      -13.2186667032       -8.7636605158  MEMB      87              0.0000000000
     11623        87  POPC      H5X           -25.1326159791      -12.6889775309       -9.3156890136  MEMB      87              0.0000000000
     11624        87  POPC      H5Y           -25.5784030474      -14.2315965190       -8.4829143941  MEMB      87              0.0000000000
     11625        87  POPC      C36           -26.3951665155      -12.4404353429       -7.4775343365  MEMB      87              0.0000000000
     11626        87  POPC      H6X           -26.8729016574      -11.4942487056       -7.8104327806  MEMB      87              0.0000000000
     11627        87  POPC      H6Y           -25.4388081969      -12.0852058245       -7.0376344048  MEMB      87              0.0000000000
     11628        87  POPC      C37           -27.3226398373      -13.2679970752       -6.6155288500  MEMB      87              0.0000000000
     11629        87  POPC      H7X           -26.6712991527      -14.0416204792       -6.1555479822  MEMB      87              0.0000000000
     11630        87  POPC      H7Y           -28.0289914430      -13.9494625074       -7.1360989760  MEMB      87              0.0000000000
     11631        87  POPC      C38           -28.2447749385      -12.5637284503       -5.5807212554  MEMB      87              0.0000000000
     11632        87  POPC      H8X           -28.7807556700      -13.3979364661       -5.0795802635  MEMB      87              0.0000000000
     11633        87  POPC      H8Y           -28.9182269092      -11.9899924912       -6.2527405767  MEMB      87              0.0000000000
     11634        87  POPC      C39           -27.5047998839      -11.7524411039       -4.5537900911  MEMB      87              0.0000000000
     11635        87  POPC      H9X           -28.2513398913      -11.2139109633       -3.9317091644  MEMB      87              0.0000000000
     11636        87  POPC      H9Y           -26.8684329927      -10.9523780653       -4.9888255848  MEMB      87              0.0000000000
     11637        87  POPC      C310          -26.6450712178      -12.5693921785       -3.5664484152  MEMB      87              0.0000000000
     11638        87  POPC      H10X          -25.9395879852      -11.9587958745       -2.9633008140  MEMB      87              0.0000000000
     11639        87  POPC      H10Y          -25.9457121019      -13.1843974384       -4.1722420916  MEMB      87              0.0000000000
     11640        87  POPC      C311          -27.5872569023      -13.3658093883       -2.5878691023  MEMB      87              0.0000000000
     11641        87  POPC      H11X          -28.2533395716      -13.9396669624       -3.2670915109  MEMB      87              0.0000000000
     11642        87  POPC      H11Y          -28.3007832655      -12.6735029676       -2.0919739325  MEMB      87              0.0000000000
     11643        87  POPC      C312          -26.8008753015      -14.0583199382       -1.4748084538  MEMB      87              0.0000000000
     11644        87  POPC      H12X          -26.0588215908      -13.2917602684       -1.1648673521  MEMB      87              0.0000000000
     11645        87  POPC      H12Y          -26.2368500940      -14.9240615817       -1.8830819628  MEMB      87              0.0000000000
     11646        87  POPC      C313          -27.7182983008      -14.6979433545       -0.3574068797  MEMB      87              0.0000000000
     11647        87  POPC      H13X          -27.4134255052      -15.7662344710       -0.3687117164  MEMB      87              0.0000000000
     11648        87  POPC      H13Y          -28.7835918719      -14.5180597178       -0.6164678799  MEMB      87              0.0000000000
     11649        87  POPC      C314          -27.4078336982      -13.9608133514        1.0421294767  MEMB      87              0.0000000000
     11650        87  POPC      H14X          -26.3051735314      -14.0769138667        1.1127177036  MEMB      87              0.0000000000
     11651        87  POPC      H14Y          -27.9099672609      -14.5681246357        1.8253012300  MEMB      87              0.0000000000
     11652        87  POPC      C315          -27.9659443156      -12.4977813555        1.1172082312  MEMB      87              0.0000000000
     11653        87  POPC      H15X          -27.4638772208      -11.8184656619        0.3955563176  MEMB      87              0.0000000000
     11654        87  POPC      H15Y          -27.6313165904      -12.1082221932        2.1023923984  MEMB      87              0.0000000000
     11655        87  POPC      C316          -29.4629954782      -12.3003393217        0.8695300514  MEMB      87              0.0000000000
     11656        87  POPC      H16X          -29.8579324703      -12.7877454442       -0.0474106979  MEMB      87              0.0000000000
     11657        87  POPC      H16Y          -29.6745557413      -11.2107873885        0.8201358433  MEMB      87              0.0000000000
     11658        87  POPC      H16Z          -30.1456991522      -12.7005629460        1.6493103774  MEMB      87              0.0000000000
     11659        88  POPC      N             -19.3289893218      -27.3851695225      -20.2383921191  MEMB      88              0.0000000000
     11660        88  POPC      C12           -19.0630429424      -27.5401066353      -18.7726518703  MEMB      88              0.0000000000
     11661        88  POPC      H12A          -18.4203092326      -28.4006539261      -18.6597286500  MEMB      88              0.0000000000
     11662        88  POPC      H12B          -20.0213329238      -27.8337709301      -18.3703567067  MEMB      88              0.0000000000
     11663        88  POPC      C13           -20.2550927786      -28.4377407549      -20.7636803541  MEMB      88              0.0000000000
     11664        88  POPC      H13A          -21.1211695569      -28.3381471919      -20.1261914122  MEMB      88              0.0000000000
     11665        88  POPC      H13B          -20.6829940172      -28.1885261591      -21.7234682167  MEMB      88              0.0000000000
     11666        88  POPC      H13C          -19.8588189660      -29.4424129280      -20.7646296009  MEMB      88              0.0000000000
     11667        88  POPC      C14           -20.0493749970      -26.1103560037      -20.5060932846  MEMB      88              0.0000000000
     11668        88  POPC      H14A          -20.1087729870      -25.9815792240      -21.5767419690  MEMB      88              0.0000000000
     11669        88  POPC      H14B          -21.0151605907      -26.0110724118      -20.0330173269  MEMB      88              0.0000000000
     11670        88  POPC      H14C          -19.4236570674      -25.3069934479      -20.1462519586  MEMB      88              0.0000000000
     11671        88  POPC      C15           -18.0388565024      -27.5592178327      -21.0268433486  MEMB      88              0.0000000000
     11672        88  POPC      H15A          -17.3093647608      -28.2120728250      -20.5707489273  MEMB      88              0.0000000000
     11673        88  POPC      H15B          -17.5474784887      -26.5976284768      -21.0439777216  MEMB      88              0.0000000000
     11674        88  POPC      H15C          -18.1736528148      -27.7619545263      -22.0790447963  MEMB      88              0.0000000000
     11675        88  POPC      C11           -18.3219379320      -26.4249107344      -17.9890833063  MEMB      88              0.0000000000
     11676        88  POPC      H11A          -18.1176960302      -26.7807344122      -16.9566126371  MEMB      88              0.0000000000
     11677        88  POPC      H11B          -19.0232974620      -25.5817688165      -17.8115232192  MEMB      88              0.0000000000
     11678        88  POPC      P             -16.0389829334      -25.1749820204      -17.9400335805  MEMB      88              0.0000000000
     11679        88  POPC      O13           -16.6784836922      -24.0176586890      -17.2954253708  MEMB      88              0.0000000000
     11680        88  POPC      O14           -14.9319742974      -24.8603524014      -18.9090075308  MEMB      88              0.0000000000
     11681        88  POPC      O12           -17.1551029487      -26.0549765080      -18.6604271491  MEMB      88              0.0000000000
     11682        88  POPC      O11           -15.5818694427      -26.2567351972      -16.8983620817  MEMB      88              0.0000000000
     11683        88  POPC      C1            -15.0322471262      -27.4553168562      -17.3861855744  MEMB      88              0.0000000000
     11684        88  POPC      HA            -13.9709996588      -27.3211724393      -17.6863190477  MEMB      88              0.0000000000
     11685        88  POPC      HB            -15.5755560174      -27.7267648385      -18.3164825780  MEMB      88              0.0000000000
     11686        88  POPC      C2            -15.2466069084      -28.6509359195      -16.3114977385  MEMB      88              0.0000000000
     11687        88  POPC      HS            -15.1991574820      -29.6105641488      -16.8693355151  MEMB      88              0.0000000000
     11688        88  POPC      O21           -16.5956447566      -28.5249882872      -15.8739109858  MEMB      88              0.0000000000
     11689        88  POPC      C21           -17.1639618780      -29.4406830902      -14.9719847186  MEMB      88              0.0000000000
     11690        88  POPC      O22           -16.5757023121      -30.4573778733      -14.6280752934  MEMB      88              0.0000000000
     11691        88  POPC      C22           -18.4779768484      -28.8509133000      -14.4523258125  MEMB      88              0.0000000000
     11692        88  POPC      H2R           -19.2676111512      -29.4990975591      -14.8889677605  MEMB      88              0.0000000000
     11693        88  POPC      H2S           -18.7463289870      -27.7964487823      -14.6768533638  MEMB      88              0.0000000000
     11694        88  POPC      C3            -14.2676942223      -28.4385215224      -15.1810034207  MEMB      88              0.0000000000
     11695        88  POPC      HX            -13.2650242147      -28.6250552424      -15.6216609513  MEMB      88              0.0000000000
     11696        88  POPC      HY            -14.3088614407      -29.1612311164      -14.3382000665  MEMB      88              0.0000000000
     11697        88  POPC      O31           -14.2510101361      -27.0440714575      -14.8089311763  MEMB      88              0.0000000000
     11698        88  POPC      C31           -13.3850506515      -26.6720458548      -13.9498707864  MEMB      88              0.0000000000
     11699        88  POPC      O32           -12.7334341401      -27.3963546439      -13.1988624585  MEMB      88              0.0000000000
     11700        88  POPC      C32           -13.5357573146      -25.1418844897      -13.8594425496  MEMB      88              0.0000000000
     11701        88  POPC      H2X           -14.6265630340      -24.9459216652      -13.7815815885  MEMB      88              0.0000000000
     11702        88  POPC      H2Y           -13.2762564830      -24.6649801963      -14.8287428766  MEMB      88              0.0000000000
     11703        88  POPC      C23           -18.6304769687      -29.0079775618      -12.9010001591  MEMB      88              0.0000000000
     11704        88  POPC      H3R           -18.3775020739      -29.9930868098      -12.4539156689  MEMB      88              0.0000000000
     11705        88  POPC      H3S           -19.7306380465      -28.9624757816      -12.7530271074  MEMB      88              0.0000000000
     11706        88  POPC      C24           -17.9202607950      -28.0248692775      -11.9967020306  MEMB      88              0.0000000000
     11707        88  POPC      H4R           -18.3517747379      -27.0123848048      -12.1483321604  MEMB      88              0.0000000000
     11708        88  POPC      H4S           -16.8361282481      -28.0630835971      -12.2365297229  MEMB      88              0.0000000000
     11709        88  POPC      C25           -17.9987822068      -28.3588110981      -10.5421153725  MEMB      88              0.0000000000
     11710        88  POPC      H5R           -18.2504288647      -29.4376130879      -10.4573721402  MEMB      88              0.0000000000
     11711        88  POPC      H5S           -18.8581486761      -27.7793094965      -10.1421302682  MEMB      88              0.0000000000
     11712        88  POPC      C26           -16.6488335496      -27.9812526340       -9.7717220064  MEMB      88              0.0000000000
     11713        88  POPC      H6R           -16.8656359816      -27.9894235257       -8.6821119856  MEMB      88              0.0000000000
     11714        88  POPC      H6S           -16.4165579241      -26.9658372198      -10.1581164718  MEMB      88              0.0000000000
     11715        88  POPC      C27           -15.4712670458      -28.8848559191      -10.0175169300  MEMB      88              0.0000000000
     11716        88  POPC      H7R           -14.8490636864      -28.4216056487      -10.8128681604  MEMB      88              0.0000000000
     11717        88  POPC      H7S           -15.8318212407      -29.8856459013      -10.3380492509  MEMB      88              0.0000000000
     11718        88  POPC      C28           -14.4413769707      -29.0585679528       -8.8160595270  MEMB      88              0.0000000000
     11719        88  POPC      H8R           -14.1160224213      -28.0384689403       -8.5196416302  MEMB      88              0.0000000000
     11720        88  POPC      H8S           -13.4676015378      -29.4682793618       -9.1598896778  MEMB      88              0.0000000000
     11721        88  POPC      C29           -15.0620070769      -29.8771243490       -7.7036695104  MEMB      88              0.0000000000
     11722        88  POPC      H91           -15.3539496962      -30.8908156697       -8.0154367239  MEMB      88              0.0000000000
     11723        88  POPC      C210          -15.5226674040      -29.5111457009       -6.4837391248  MEMB      88              0.0000000000
     11724        88  POPC      H101          -15.9254528725      -30.3359352898       -5.8775327743  MEMB      88              0.0000000000
     11725        88  POPC      C211          -15.5359772577      -28.1935589375       -5.8650040021  MEMB      88              0.0000000000
     11726        88  POPC      H11R          -16.2198232717      -27.5204124823       -6.4249586261  MEMB      88              0.0000000000
     11727        88  POPC      H11S          -14.5568558988      -27.6878750274       -6.0061645975  MEMB      88              0.0000000000
     11728        88  POPC      C212          -15.8037652704      -28.1612444980       -4.3508061404  MEMB      88              0.0000000000
     11729        88  POPC      H12R          -16.7223085919      -28.7583911517       -4.1663750862  MEMB      88              0.0000000000
     11730        88  POPC      H12S          -15.9846127607      -27.1587352183       -3.9074210945  MEMB      88              0.0000000000
     11731        88  POPC      C213          -14.8515129862      -29.0629195352       -3.5539051241  MEMB      88              0.0000000000
     11732        88  POPC      H13R          -13.8252692465      -28.7334646593       -3.8233564115  MEMB      88              0.0000000000
     11733        88  POPC      H13S          -14.9927089008      -30.1255797943       -3.8456887982  MEMB      88              0.0000000000
     11734        88  POPC      C214          -15.0973603506      -29.0190952206       -2.0541534198  MEMB      88              0.0000000000
     11735        88  POPC      H14R          -14.5452924801      -29.8808816218       -1.6218737083  MEMB      88              0.0000000000
     11736        88  POPC      H14S          -16.1814420283      -29.0850018757       -1.8201781586  MEMB      88              0.0000000000
     11737        88  POPC      C215          -14.6967291886      -27.6428992216       -1.4941061382  MEMB      88              0.0000000000
     11738        88  POPC      H15R          -15.3480564589      -26.8466361699       -1.9137004783  MEMB      88              0.0000000000
     11739        88  POPC      H15S          -13.6611404905      -27.3890383997       -1.8062465873  MEMB      88              0.0000000000
     11740        88  POPC      C216          -14.7637672769      -27.6203582657        0.0511721892  MEMB      88              0.0000000000
     11741        88  POPC      H16R          -14.2793825569      -28.5442824591        0.4333456379  MEMB      88              0.0000000000
     11742        88  POPC      H16S          -15.8018271287      -27.7318212623        0.4310777806  MEMB      88              0.0000000000
     11743        88  POPC      C217          -14.0011382646      -26.3884084405        0.6395781218  MEMB      88              0.0000000000
     11744        88  POPC      H17R          -13.5773494834      -26.7213100193        1.6111234475  MEMB      88              0.0000000000
     11745        88  POPC      H17S          -14.7537743341      -25.6088799345        0.8849270894  MEMB      88              0.0000000000
     11746        88  POPC      C218          -12.9116397647      -25.6698568061       -0.1029331644  MEMB      88              0.0000000000
     11747        88  POPC      H18R          -12.5584764967      -24.6978936200        0.3031246664  MEMB      88              0.0000000000
     11748        88  POPC      H18S          -13.3337494250      -25.4859844093       -1.1140403518  MEMB      88              0.0000000000
     11749        88  POPC      H18T          -12.0426090245      -26.3511747248       -0.2250498848  MEMB      88              0.0000000000
     11750        88  POPC      C33           -12.8756459737      -24.4111857880      -12.7410239060  MEMB      88              0.0000000000
     11751        88  POPC      H3X           -12.7343265552      -23.3214674746      -12.9049261064  MEMB      88              0.0000000000
     11752        88  POPC      H3Y           -11.8925941598      -24.8159490441      -12.4183833015  MEMB      88              0.0000000000
     11753        88  POPC      C34           -13.8116796258      -24.6095849585      -11.5468482032  MEMB      88              0.0000000000
     11754        88  POPC      H4X           -14.3025373364      -25.6036728909      -11.6187430729  MEMB      88              0.0000000000
     11755        88  POPC      H4Y           -14.6262535317      -23.8589447145      -11.6324616280  MEMB      88              0.0000000000
     11756        88  POPC      C35           -13.1279205498      -24.3737965514      -10.1699923498  MEMB      88              0.0000000000
     11757        88  POPC      H5X           -12.7027944817      -23.3504893827      -10.2501867269  MEMB      88              0.0000000000
     11758        88  POPC      H5Y           -12.3375260107      -25.1313447269       -9.9809995212  MEMB      88              0.0000000000
     11759        88  POPC      C36           -14.0495124377      -24.4420809005       -8.8932479673  MEMB      88              0.0000000000
     11760        88  POPC      H6X           -14.4898961716      -25.4554125851       -8.7768769275  MEMB      88              0.0000000000
     11761        88  POPC      H6Y           -14.8883218509      -23.7141012695       -8.9209167652  MEMB      88              0.0000000000
     11762        88  POPC      C37           -13.3545189340      -24.2012471654       -7.5775691185  MEMB      88              0.0000000000
     11763        88  POPC      H7X           -13.0305582493      -23.1397056471       -7.6275706860  MEMB      88              0.0000000000
     11764        88  POPC      H7Y           -12.4900940283      -24.8988774038       -7.5575035258  MEMB      88              0.0000000000
     11765        88  POPC      C38           -14.1909378507      -24.6166112190       -6.3485811379  MEMB      88              0.0000000000
     11766        88  POPC      H8X           -13.5391125059      -24.7380599884       -5.4571248309  MEMB      88              0.0000000000
     11767        88  POPC      H8Y           -14.5359224449      -25.6201887408       -6.6774257002  MEMB      88              0.0000000000
     11768        88  POPC      C39           -15.4979458776      -23.8260624050       -6.0633189006  MEMB      88              0.0000000000
     11769        88  POPC      H9X           -16.1099815662      -24.0747175216       -6.9565736077  MEMB      88              0.0000000000
     11770        88  POPC      H9Y           -15.2109307313      -22.7701514163       -5.8709772645  MEMB      88              0.0000000000
     11771        88  POPC      C310          -16.1925275242      -24.2389818011       -4.7916079878  MEMB      88              0.0000000000
     11772        88  POPC      H10X          -15.5284439534      -24.4927171063       -3.9378328697  MEMB      88              0.0000000000
     11773        88  POPC      H10Y          -16.8023123309      -25.1347714939       -5.0366486283  MEMB      88              0.0000000000
     11774        88  POPC      C311          -17.3100550194      -23.2635358227       -4.3083366791  MEMB      88              0.0000000000
     11775        88  POPC      H11X          -17.7613920066      -22.6811984831       -5.1399008413  MEMB      88              0.0000000000
     11776        88  POPC      H11Y          -16.8550958578      -22.5201206844       -3.6193754803  MEMB      88              0.0000000000
     11777        88  POPC      C312          -18.3812113790      -23.8100678552       -3.3776034685  MEMB      88              0.0000000000
     11778        88  POPC      H12X          -18.7752418839      -23.0279160009       -2.6940091222  MEMB      88              0.0000000000
     11779        88  POPC      H12Y          -17.8322744717      -24.5942894739       -2.8137015558  MEMB      88              0.0000000000
     11780        88  POPC      C313          -19.6144770521      -24.4147156934       -4.0774558890  MEMB      88              0.0000000000
     11781        88  POPC      H13X          -19.3030500833      -25.1116852706       -4.8846534589  MEMB      88              0.0000000000
     11782        88  POPC      H13Y          -20.2386287994      -23.6450589670       -4.5798344343  MEMB      88              0.0000000000
     11783        88  POPC      C314          -20.7188664672      -25.0375518584       -3.0994867650  MEMB      88              0.0000000000
     11784        88  POPC      H14X          -21.7428332149      -24.9112395757       -3.5116249022  MEMB      88              0.0000000000
     11785        88  POPC      H14Y          -20.8412337823      -24.2539168102       -2.3215001055  MEMB      88              0.0000000000
     11786        88  POPC      C315          -20.6577519602      -26.4509582843       -2.4470917837  MEMB      88              0.0000000000
     11787        88  POPC      H15X          -20.8384129380      -27.1921850438       -3.2547216892  MEMB      88              0.0000000000
     11788        88  POPC      H15Y          -21.3972554395      -26.5646085364       -1.6257880394  MEMB      88              0.0000000000
     11789        88  POPC      C316          -19.2899666111      -26.8982949136       -1.8868131442  MEMB      88              0.0000000000
     11790        88  POPC      H16X          -18.9350779809      -26.0117910025       -1.3189354881  MEMB      88              0.0000000000
     11791        88  POPC      H16Y          -18.5850709820      -27.0181795837       -2.7371487745  MEMB      88              0.0000000000
     11792        88  POPC      H16Z          -19.5001111977      -27.7582804252       -1.2155571541  MEMB      88              0.0000000000
     11793        89  POPC      N              13.2026136560       28.1588804775      -18.7461432738  MEMB      89              0.0000000000
     11794        89  POPC      C12            14.5193103993       28.1768251440      -19.5622202599  MEMB      89              0.0000000000
     11795        89  POPC      H12A           14.3774424122       27.4058129680      -20.3050619118  MEMB      89              0.0000000000
     11796        89  POPC      H12B           15.3876883686       27.9444769683      -18.9636102839  MEMB      89              0.0000000000
     11797        89  POPC      C13            12.0143322612       28.4869977103      -19.6911999287  MEMB      89              0.0000000000
     11798        89  POPC      H13A           11.0830745168       28.5006142812      -19.1444150226  MEMB      89              0.0000000000
     11799        89  POPC      H13B           12.2418602798       29.3892500354      -20.2394440371  MEMB      89              0.0000000000
     11800        89  POPC      H13C           11.9741982950       27.7815463415      -20.5079788666  MEMB      89              0.0000000000
     11801        89  POPC      C14            12.8174587588       26.8100395692      -18.2090148769  MEMB      89              0.0000000000
     11802        89  POPC      H14A           13.0517098939       26.1134274300      -19.0003796074  MEMB      89              0.0000000000
     11803        89  POPC      H14B           13.3012575650       26.5546725671      -17.2778186377  MEMB      89              0.0000000000
     11804        89  POPC      H14C           11.7721346253       26.7946526941      -17.9379781657  MEMB      89              0.0000000000
     11805        89  POPC      C15            13.2178123309       29.0595478960      -17.5486116770  MEMB      89              0.0000000000
     11806        89  POPC      H15A           12.3490558619       28.9112502496      -16.9243761494  MEMB      89              0.0000000000
     11807        89  POPC      H15B           13.2663947029       30.0865772294      -17.8791424354  MEMB      89              0.0000000000
     11808        89  POPC      H15C           14.1107557277       28.9199259837      -16.9573776789  MEMB      89              0.0000000000
     11809        89  POPC      C11            14.8524962586       29.4707229128      -20.3944429888  MEMB      89              0.0000000000
     11810        89  POPC      H11A           14.0202316071       29.7089318979      -21.0908000065  MEMB      89              0.0000000000
     11811        89  POPC      H11B           15.6695495972       29.3499525009      -21.1375173214  MEMB      89              0.0000000000
     11812        89  POPC      P              16.3936558984       31.1267392821      -18.9879585642  MEMB      89              0.0000000000
     11813        89  POPC      O13            16.1043294898       32.1154484668      -17.9161600754  MEMB      89              0.0000000000
     11814        89  POPC      O14            17.1509857560       31.6011097307      -20.1932953976  MEMB      89              0.0000000000
     11815        89  POPC      O12            15.0253899763       30.5619434580      -19.4766286843  MEMB      89              0.0000000000
     11816        89  POPC      O11            17.1224859149       29.8723729574      -18.2743242316  MEMB      89              0.0000000000
     11817        89  POPC      C1             18.3828251830       29.5190153734      -18.7542559359  MEMB      89              0.0000000000
     11818        89  POPC      HA             18.8815471420       30.3926980390      -19.2257172769  MEMB      89              0.0000000000
     11819        89  POPC      HB             18.2621647767       28.7292947945      -19.5263332504  MEMB      89              0.0000000000
     11820        89  POPC      C2             19.3713384050       28.9629353251      -17.6428380420  MEMB      89              0.0000000000
     11821        89  POPC      HS             20.2442490940       28.4601410670      -18.1113960422  MEMB      89              0.0000000000
     11822        89  POPC      O21            18.6741646021       28.1611691564      -16.7032126961  MEMB      89              0.0000000000
     11823        89  POPC      C21            18.2622076852       26.9789343319      -17.1700184579  MEMB      89              0.0000000000
     11824        89  POPC      O22            18.7049694300       26.4134228715      -18.1309694743  MEMB      89              0.0000000000
     11825        89  POPC      C22            17.1131143876       26.4282664111      -16.2175439422  MEMB      89              0.0000000000
     11826        89  POPC      H2R            17.6393521417       25.6850636973      -15.5811129289  MEMB      89              0.0000000000
     11827        89  POPC      H2S            16.3520088259       25.8953867260      -16.8267061081  MEMB      89              0.0000000000
     11828        89  POPC      C3             20.0103627803       30.0894267056      -16.8237949157  MEMB      89              0.0000000000
     11829        89  POPC      HX             20.7203720668       30.7525491893      -17.3627534925  MEMB      89              0.0000000000
     11830        89  POPC      HY             20.6232479184       29.6181660075      -16.0259186227  MEMB      89              0.0000000000
     11831        89  POPC      O31            19.0655044797       31.0146536112      -16.2855208239  MEMB      89              0.0000000000
     11832        89  POPC      C31            18.4843793523       30.6832988924      -15.1223868218  MEMB      89              0.0000000000
     11833        89  POPC      O32            18.8388546079       29.7831692663      -14.3684462257  MEMB      89              0.0000000000
     11834        89  POPC      C32            17.4701578702       31.6869195856      -14.7814948498  MEMB      89              0.0000000000
     11835        89  POPC      H2X            16.4963661896       31.1623066129      -14.8855714008  MEMB      89              0.0000000000
     11836        89  POPC      H2Y            17.4386085712       32.5910063504      -15.4264387458  MEMB      89              0.0000000000
     11837        89  POPC      C23            16.4993061634       27.5555183746      -15.3361631981  MEMB      89              0.0000000000
     11838        89  POPC      H3R            16.1716737123       28.4345337894      -15.9314025927  MEMB      89              0.0000000000
     11839        89  POPC      H3S            17.2902665745       27.9132577615      -14.6428195533  MEMB      89              0.0000000000
     11840        89  POPC      C24            15.3014875571       27.1329372819      -14.3988423861  MEMB      89              0.0000000000
     11841        89  POPC      H4R            15.6116114332       26.2814702441      -13.7560761654  MEMB      89              0.0000000000
     11842        89  POPC      H4S            14.4081628211       26.8540508738      -14.9976028461  MEMB      89              0.0000000000
     11843        89  POPC      C25            14.9435983475       28.3517122021      -13.5701741220  MEMB      89              0.0000000000
     11844        89  POPC      H5R            13.8849252331       28.5911696511      -13.8072231212  MEMB      89              0.0000000000
     11845        89  POPC      H5S            15.5714924277       29.2372378223      -13.8066361146  MEMB      89              0.0000000000
     11846        89  POPC      C26            15.2416032321       28.1582761364      -12.0120775320  MEMB      89              0.0000000000
     11847        89  POPC      H6R            14.4781301803       27.4211642308      -11.6832980448  MEMB      89              0.0000000000
     11848        89  POPC      H6S            15.0696551656       29.1286536655      -11.4991229580  MEMB      89              0.0000000000
     11849        89  POPC      C27            16.6482719734       27.6974984362      -11.5491921484  MEMB      89              0.0000000000
     11850        89  POPC      H7R            17.3331838522       28.2723784359      -12.2085325495  MEMB      89              0.0000000000
     11851        89  POPC      H7S            16.7795611299       26.5970832665      -11.6277455251  MEMB      89              0.0000000000
     11852        89  POPC      C28            16.7976735392       28.1723362394      -10.0823383806  MEMB      89              0.0000000000
     11853        89  POPC      H8R            16.1039521103       27.5669272562       -9.4606056977  MEMB      89              0.0000000000
     11854        89  POPC      H8S            16.4691451872       29.2300017289       -9.9943970268  MEMB      89              0.0000000000
     11855        89  POPC      C29            18.2107121692       27.9875055677       -9.4721082201  MEMB      89              0.0000000000
     11856        89  POPC      H91            18.4854161457       26.9282844182       -9.3599104297  MEMB      89              0.0000000000
     11857        89  POPC      C210           19.0923366072       28.8428363539       -8.9413352487  MEMB      89              0.0000000000
     11858        89  POPC      H101           19.9507036916       28.4888792439       -8.3514871522  MEMB      89              0.0000000000
     11859        89  POPC      C211           18.7940704591       30.3040438655       -8.8911266708  MEMB      89              0.0000000000
     11860        89  POPC      H11R           18.0799599863       30.5069086560       -9.7176938184  MEMB      89              0.0000000000
     11861        89  POPC      H11S           19.7199799162       30.7768519705       -9.2828739111  MEMB      89              0.0000000000
     11862        89  POPC      C212           18.3289815043       30.8768305229       -7.4973011155  MEMB      89              0.0000000000
     11863        89  POPC      H12R           17.8743344769       30.0877943543       -6.8608735080  MEMB      89              0.0000000000
     11864        89  POPC      H12S           17.6465193819       31.6615292684       -7.8882150474  MEMB      89              0.0000000000
     11865        89  POPC      C213           19.4909942961       31.3820499206       -6.6190044932  MEMB      89              0.0000000000
     11866        89  POPC      H13R           20.2531063978       31.9313282994       -7.2121319523  MEMB      89              0.0000000000
     11867        89  POPC      H13S           20.1517009507       30.5555960018       -6.2802394197  MEMB      89              0.0000000000
     11868        89  POPC      C214           18.9920030726       32.1082146091       -5.3810192231  MEMB      89              0.0000000000
     11869        89  POPC      H14R           18.3551082103       32.9571780410       -5.7095723463  MEMB      89              0.0000000000
     11870        89  POPC      H14S           19.8798220634       32.4275193946       -4.7943827475  MEMB      89              0.0000000000
     11871        89  POPC      C215           18.0972256187       31.5169423148       -4.2283327627  MEMB      89              0.0000000000
     11872        89  POPC      H15R           17.1789307882       31.1860677837       -4.7589715098  MEMB      89              0.0000000000
     11873        89  POPC      H15S           17.8275388875       32.2457410429       -3.4343291338  MEMB      89              0.0000000000
     11874        89  POPC      C216           18.6522366252       30.3465469971       -3.4694201876  MEMB      89              0.0000000000
     11875        89  POPC      H16R           19.5481329552       30.7348440711       -2.9394051555  MEMB      89              0.0000000000
     11876        89  POPC      H16S           19.0765545140       29.5819214849       -4.1547107936  MEMB      89              0.0000000000
     11877        89  POPC      C217           17.7699342845       29.8089939599       -2.3248672921  MEMB      89              0.0000000000
     11878        89  POPC      H17R           17.4295971229       28.7827752730       -2.5805364673  MEMB      89              0.0000000000
     11879        89  POPC      H17S           16.8949972965       30.4900983426       -2.2548445610  MEMB      89              0.0000000000
     11880        89  POPC      C218           18.3439887657       29.9031142466       -0.8958944350  MEMB      89              0.0000000000
     11881        89  POPC      H18R           17.5332942455       29.7864386046       -0.1452399876  MEMB      89              0.0000000000
     11882        89  POPC      H18S           18.9383866409       30.8126156713       -0.6639040358  MEMB      89              0.0000000000
     11883        89  POPC      H18T           19.0154982024       29.0355407381       -0.7206431517  MEMB      89              0.0000000000
     11884        89  POPC      C33            17.8169491845       32.1521745264      -13.3937533951  MEMB      89              0.0000000000
     11885        89  POPC      H3X            18.8970502742       32.4115084383      -13.4149306197  MEMB      89              0.0000000000
     11886        89  POPC      H3Y            17.7003532298       31.3750400020      -12.6083949194  MEMB      89              0.0000000000
     11887        89  POPC      C34            17.0026377625       33.4360984434      -13.1420488217  MEMB      89              0.0000000000
     11888        89  POPC      H4X            17.3018628596       34.2067206434      -13.8842930331  MEMB      89              0.0000000000
     11889        89  POPC      H4Y            17.2442015940       33.8149333784      -12.1259525487  MEMB      89              0.0000000000
     11890        89  POPC      C35            15.4876248271       33.4102677272      -13.2970335738  MEMB      89              0.0000000000
     11891        89  POPC      H5X            15.1620531341       33.3527325504      -14.3577004721  MEMB      89              0.0000000000
     11892        89  POPC      H5Y            15.1745081752       34.4376197636      -13.0127345457  MEMB      89              0.0000000000
     11893        89  POPC      C36            14.6255994828       32.4482165473      -12.4957836128  MEMB      89              0.0000000000
     11894        89  POPC      H6X            14.8992694792       31.4221863771      -12.8224148955  MEMB      89              0.0000000000
     11895        89  POPC      H6Y            13.5712613238       32.4491947801      -12.8460568419  MEMB      89              0.0000000000
     11896        89  POPC      C37            14.7538833054       32.6342812473      -10.9676434391  MEMB      89              0.0000000000
     11897        89  POPC      H7X            14.7541464821       33.7204859440      -10.7342323828  MEMB      89              0.0000000000
     11898        89  POPC      H7Y            15.6834871570       32.1767730954      -10.5665893190  MEMB      89              0.0000000000
     11899        89  POPC      C38            13.5590643383       31.9634053251      -10.2794470712  MEMB      89              0.0000000000
     11900        89  POPC      H8X            13.3391246397       30.9647992185      -10.7138818957  MEMB      89              0.0000000000
     11901        89  POPC      H8Y            12.6472999004       32.5870204773      -10.3982354837  MEMB      89              0.0000000000
     11902        89  POPC      C39            13.7172358089       31.7286724810       -8.8020948316  MEMB      89              0.0000000000
     11903        89  POPC      H9X            13.3557474351       32.5690728472       -8.1717187090  MEMB      89              0.0000000000
     11904        89  POPC      H9Y            14.7977232064       31.5682181619       -8.5993081055  MEMB      89              0.0000000000
     11905        89  POPC      C310           12.9920615286       30.4370725911       -8.3644751245  MEMB      89              0.0000000000
     11906        89  POPC      H10X           13.3086884348       29.6218388710       -9.0496480138  MEMB      89              0.0000000000
     11907        89  POPC      H10Y           11.8836813582       30.4624827403       -8.4363702387  MEMB      89              0.0000000000
     11908        89  POPC      C311           13.2918073953       30.1596164914       -6.8895896782  MEMB      89              0.0000000000
     11909        89  POPC      H11X           12.3979780511       30.4785067685       -6.3119229020  MEMB      89              0.0000000000
     11910        89  POPC      H11Y           14.0868101830       30.8952158252       -6.6422337208  MEMB      89              0.0000000000
     11911        89  POPC      C312           13.6181465483       28.7473080618       -6.4234858316  MEMB      89              0.0000000000
     11912        89  POPC      H12X           14.2860528657       28.1289025653       -7.0605079781  MEMB      89              0.0000000000
     11913        89  POPC      H12Y           12.6917627391       28.1384808455       -6.3495693416  MEMB      89              0.0000000000
     11914        89  POPC      C313           14.0476344530       28.8037338060       -4.9192032512  MEMB      89              0.0000000000
     11915        89  POPC      H13X           15.0605889788       29.2513093522       -5.0081991985  MEMB      89              0.0000000000
     11916        89  POPC      H13Y           14.1495375026       27.7783603981       -4.5038160713  MEMB      89              0.0000000000
     11917        89  POPC      C314           13.1789188398       29.6407256348       -3.9522356150  MEMB      89              0.0000000000
     11918        89  POPC      H14X           12.1821392470       29.1824342656       -3.7769625763  MEMB      89              0.0000000000
     11919        89  POPC      H14Y           13.0751705642       30.6714214345       -4.3537619945  MEMB      89              0.0000000000
     11920        89  POPC      C315           13.8551034389       29.8484890287       -2.5698691712  MEMB      89              0.0000000000
     11921        89  POPC      H15X           13.0891826936       30.3177104685       -1.9160196606  MEMB      89              0.0000000000
     11922        89  POPC      H15Y           14.6752416804       30.5611430953       -2.8018570691  MEMB      89              0.0000000000
     11923        89  POPC      C316           14.3294738387       28.5805558218       -1.9077028893  MEMB      89              0.0000000000
     11924        89  POPC      H16X           14.8003365339       28.8785475135       -0.9465515227  MEMB      89              0.0000000000
     11925        89  POPC      H16Y           15.0629116224       28.0166000598       -2.5227990936  MEMB      89              0.0000000000
     11926        89  POPC      H16Z           13.4351111902       27.9586353246       -1.6894111388  MEMB      89              0.0000000000
     11927        90  POPC      N             -22.2310510409       27.1595630730      -20.1774264891  MEMB      90              0.0000000000
     11928        90  POPC      C12           -22.6966482661       25.7466709054      -19.9788422989  MEMB      90              0.0000000000
     11929        90  POPC      H12A          -23.3245836861       25.4775957724      -20.8153204388  MEMB      90              0.0000000000
     11930        90  POPC      H12B          -23.2869043953       25.7599664207      -19.0745077333  MEMB      90              0.0000000000
     11931        90  POPC      C13           -21.5813099998       27.2919299302      -21.5436693891  MEMB      90              0.0000000000
     11932        90  POPC      H13A          -22.3733821047       27.1111325368      -22.2552408319  MEMB      90              0.0000000000
     11933        90  POPC      H13B          -21.1670597592       28.2858036689      -21.6274067316  MEMB      90              0.0000000000
     11934        90  POPC      H13C          -20.8041734145       26.5485118092      -21.6426049708  MEMB      90              0.0000000000
     11935        90  POPC      C14           -23.4124958805       28.0516944010      -20.1666303401  MEMB      90              0.0000000000
     11936        90  POPC      H14A          -24.2084010469       27.5304768205      -20.6777735492  MEMB      90              0.0000000000
     11937        90  POPC      H14B          -23.6701946388       28.2712060336      -19.1410544510  MEMB      90              0.0000000000
     11938        90  POPC      H14C          -23.1630066542       28.9805957209      -20.6578506114  MEMB      90              0.0000000000
     11939        90  POPC      C15           -21.2846275211       27.5812518022      -19.0907866082  MEMB      90              0.0000000000
     11940        90  POPC      H15A          -21.7305693481       27.5212451047      -18.1089846272  MEMB      90              0.0000000000
     11941        90  POPC      H15B          -20.9845587327       28.6147178946      -19.1819244744  MEMB      90              0.0000000000
     11942        90  POPC      H15C          -20.4870587788       26.8571106019      -19.1676221041  MEMB      90              0.0000000000
     11943        90  POPC      C11           -21.6392156737       24.6446028288      -19.9219467042  MEMB      90              0.0000000000
     11944        90  POPC      H11A          -21.1995501378       24.6375205693      -20.9422235204  MEMB      90              0.0000000000
     11945        90  POPC      H11B          -22.2055550508       23.6939088681      -19.8231454296  MEMB      90              0.0000000000
     11946        90  POPC      P             -20.6665010390       24.2810057678      -17.5970968467  MEMB      90              0.0000000000
     11947        90  POPC      O13           -20.1912165444       25.2727203091      -16.6305893785  MEMB      90              0.0000000000
     11948        90  POPC      O14           -19.9889764782       22.9800483132      -17.6099072480  MEMB      90              0.0000000000
     11949        90  POPC      O12           -20.6128386511       24.9482512549      -18.9936892922  MEMB      90              0.0000000000
     11950        90  POPC      O11           -22.2140091758       23.9881575069      -17.2894154058  MEMB      90              0.0000000000
     11951        90  POPC      C1            -22.6599589521       23.6107743175      -15.9677046322  MEMB      90              0.0000000000
     11952        90  POPC      HA            -21.7507515861       23.4777207572      -15.3432369164  MEMB      90              0.0000000000
     11953        90  POPC      HB            -23.2723557837       22.6844374949      -16.0022163141  MEMB      90              0.0000000000
     11954        90  POPC      C2            -23.6504603850       24.6618452169      -15.4655611815  MEMB      90              0.0000000000
     11955        90  POPC      HS            -24.5321637271       24.5279691618      -16.1281301149  MEMB      90              0.0000000000
     11956        90  POPC      O21           -23.1764207140       26.0332992828      -15.6802607762  MEMB      90              0.0000000000
     11957        90  POPC      C21           -24.0256383852       26.9440729459      -15.9946493613  MEMB      90              0.0000000000
     11958        90  POPC      O22           -25.1648734418       26.8699746993      -16.3084772813  MEMB      90              0.0000000000
     11959        90  POPC      C22           -23.3022424267       28.3237456237      -15.8796757724  MEMB      90              0.0000000000
     11960        90  POPC      H2R           -23.7865864242       29.0584563532      -16.5578584544  MEMB      90              0.0000000000
     11961        90  POPC      H2S           -22.2164261921       28.3772626829      -16.1087175585  MEMB      90              0.0000000000
     11962        90  POPC      C3            -23.9219517359       24.4615000813      -13.9934755678  MEMB      90              0.0000000000
     11963        90  POPC      HX            -24.3615873981       23.4621470940      -13.7877206561  MEMB      90              0.0000000000
     11964        90  POPC      HY            -24.7335130296       25.2038921459      -13.8368128966  MEMB      90              0.0000000000
     11965        90  POPC      O31           -22.7430625777       24.5233603514      -13.1841839483  MEMB      90              0.0000000000
     11966        90  POPC      C31           -23.0436527561       24.4712696551      -11.9184964776  MEMB      90              0.0000000000
     11967        90  POPC      O32           -24.1515843629       24.3652635846      -11.3757545385  MEMB      90              0.0000000000
     11968        90  POPC      C32           -21.8066104522       24.5989630848      -11.0165744585  MEMB      90              0.0000000000
     11969        90  POPC      H2X           -21.4053284461       25.6325014804      -11.0879340122  MEMB      90              0.0000000000
     11970        90  POPC      H2Y           -21.0083167617       23.9137419949      -11.3736744913  MEMB      90              0.0000000000
     11971        90  POPC      C23           -23.3954031679       28.8146353616      -14.4568395595  MEMB      90              0.0000000000
     11972        90  POPC      H3R           -24.3249635339       28.4244570861      -13.9899355208  MEMB      90              0.0000000000
     11973        90  POPC      H3S           -23.4056113075       29.9139345707      -14.2963482887  MEMB      90              0.0000000000
     11974        90  POPC      C24           -22.2590638257       28.4738535985      -13.4759330241  MEMB      90              0.0000000000
     11975        90  POPC      H4R           -22.2348940844       27.3695647711      -13.3564217703  MEMB      90              0.0000000000
     11976        90  POPC      H4S           -22.4993930528       28.9331826268      -12.4932939863  MEMB      90              0.0000000000
     11977        90  POPC      C25           -20.7663102018       28.8347511743      -13.9060361229  MEMB      90              0.0000000000
     11978        90  POPC      H5R           -20.8072617140       29.8781379707      -14.2854939842  MEMB      90              0.0000000000
     11979        90  POPC      H5S           -20.4733203631       28.0532849307      -14.6393770205  MEMB      90              0.0000000000
     11980        90  POPC      C26           -19.8315130525       28.8687252399      -12.6908654913  MEMB      90              0.0000000000
     11981        90  POPC      H6R           -18.7986882482       29.1586424011      -12.9799018482  MEMB      90              0.0000000000
     11982        90  POPC      H6S           -19.9198315198       27.8630080688      -12.2271267861  MEMB      90              0.0000000000
     11983        90  POPC      C27           -20.2290520372       29.9229276413      -11.6423904445  MEMB      90              0.0000000000
     11984        90  POPC      H7R           -21.2355975861       29.9076424001      -11.1723335540  MEMB      90              0.0000000000
     11985        90  POPC      H7S           -20.1960504252       30.8161036113      -12.3022908743  MEMB      90              0.0000000000
     11986        90  POPC      C28           -19.2367341525       30.1456504312      -10.5431919338  MEMB      90              0.0000000000
     11987        90  POPC      H8R           -19.5077800919       31.0266556278       -9.9229615131  MEMB      90              0.0000000000
     11988        90  POPC      H8S           -18.2779680932       30.3987659253      -11.0442120060  MEMB      90              0.0000000000
     11989        90  POPC      C29           -18.8814494679       29.0026011818       -9.6443467978  MEMB      90              0.0000000000
     11990        90  POPC      H91           -18.1144775268       28.2959252847       -9.9941520244  MEMB      90              0.0000000000
     11991        90  POPC      C210          -19.5508807983       28.6996898598       -8.5068101631  MEMB      90              0.0000000000
     11992        90  POPC      H101          -19.1779070069       27.9369599697       -7.8074290239  MEMB      90              0.0000000000
     11993        90  POPC      C211          -20.6999849132       29.5123910579       -7.9893996922  MEMB      90              0.0000000000
     11994        90  POPC      H11R          -20.7959472984       30.5309353677       -8.4226190035  MEMB      90              0.0000000000
     11995        90  POPC      H11S          -20.4980341664       29.8277645806       -6.9434184270  MEMB      90              0.0000000000
     11996        90  POPC      C212          -22.1108003907       29.0033315472       -8.1600127445  MEMB      90              0.0000000000
     11997        90  POPC      H12R          -22.3557287710       28.6941099964       -9.1986240956  MEMB      90              0.0000000000
     11998        90  POPC      H12S          -22.7640167912       29.8654740955       -7.9063604964  MEMB      90              0.0000000000
     11999        90  POPC      C213          -22.3815548708       27.8510690650       -7.1396468329  MEMB      90              0.0000000000
     12000        90  POPC      H13R          -21.5779060156       27.0900814632       -7.2364315032  MEMB      90              0.0000000000
     12001        90  POPC      H13S          -23.2279579669       27.2417018143       -7.5225232923  MEMB      90              0.0000000000
     12002        90  POPC      C214          -22.7572993368       28.4393514392       -5.7403714687  MEMB      90              0.0000000000
     12003        90  POPC      H14R          -23.6678647320       29.0624946528       -5.8703096760  MEMB      90              0.0000000000
     12004        90  POPC      H14S          -21.9360234698       29.1337131936       -5.4616440926  MEMB      90              0.0000000000
     12005        90  POPC      C215          -22.9936668849       27.2968187548       -4.7315802495  MEMB      90              0.0000000000
     12006        90  POPC      H15R          -23.7381213031       26.5672158238       -5.1160116060  MEMB      90              0.0000000000
     12007        90  POPC      H15S          -23.3481916220       27.8508641939       -3.8362217185  MEMB      90              0.0000000000
     12008        90  POPC      C216          -21.7457850920       26.5574235895       -4.1553013890  MEMB      90              0.0000000000
     12009        90  POPC      H16R          -21.2494742229       26.1906380338       -5.0791327269  MEMB      90              0.0000000000
     12010        90  POPC      H16S          -22.0743605914       25.7069122548       -3.5204860702  MEMB      90              0.0000000000
     12011        90  POPC      C217          -20.8514558153       27.3962763508       -3.2088415256  MEMB      90              0.0000000000
     12012        90  POPC      H17R          -21.3817946783       27.6081629481       -2.2558645827  MEMB      90              0.0000000000
     12013        90  POPC      H17S          -20.6282928228       28.3608826986       -3.7128795931  MEMB      90              0.0000000000
     12014        90  POPC      C218          -19.5016545096       26.6790833912       -2.9744545002  MEMB      90              0.0000000000
     12015        90  POPC      H18R          -18.9764145766       27.1393893323       -2.1104160201  MEMB      90              0.0000000000
     12016        90  POPC      H18S          -18.9139821294       26.6415853182       -3.9165562651  MEMB      90              0.0000000000
     12017        90  POPC      H18T          -19.7869096292       25.6244015241       -2.7729680633  MEMB      90              0.0000000000
     12018        90  POPC      C33           -22.1993509263       24.2914556636       -9.6183224267  MEMB      90              0.0000000000
     12019        90  POPC      H3X           -22.7020315872       23.3010841026       -9.6465611084  MEMB      90              0.0000000000
     12020        90  POPC      H3Y           -22.9792108393       25.0089217074       -9.2845834842  MEMB      90              0.0000000000
     12021        90  POPC      C34           -21.1208874026       24.0574327055       -8.7002229637  MEMB      90              0.0000000000
     12022        90  POPC      H4X           -20.3509004393       24.8363566620       -8.8865518293  MEMB      90              0.0000000000
     12023        90  POPC      H4Y           -20.5939264573       23.0897012206       -8.8420989316  MEMB      90              0.0000000000
     12024        90  POPC      C35           -21.5719282073       23.9871358118       -7.1277264613  MEMB      90              0.0000000000
     12025        90  POPC      H5X           -22.0313145215       24.9691813635       -6.8850918866  MEMB      90              0.0000000000
     12026        90  POPC      H5Y           -20.6024492705       23.9451237019       -6.5867403660  MEMB      90              0.0000000000
     12027        90  POPC      C36           -22.5825420019       22.9292620630       -6.6732511544  MEMB      90              0.0000000000
     12028        90  POPC      H6X           -23.4984058170       22.9661229922       -7.3010685325  MEMB      90              0.0000000000
     12029        90  POPC      H6Y           -22.9501912435       23.1361085998       -5.6454521017  MEMB      90              0.0000000000
     12030        90  POPC      C37           -21.9814791238       21.5325648190       -6.6155492511  MEMB      90              0.0000000000
     12031        90  POPC      H7X           -20.9113005408       21.5116184287       -6.3178914721  MEMB      90              0.0000000000
     12032        90  POPC      H7Y           -22.1180287233       21.0920989118       -7.6263236012  MEMB      90              0.0000000000
     12033        90  POPC      C38           -22.7299926626       20.7508404397       -5.4459279086  MEMB      90              0.0000000000
     12034        90  POPC      H8X           -22.6525346697       19.6696024194       -5.6893320200  MEMB      90              0.0000000000
     12035        90  POPC      H8Y           -23.8213154524       20.8988527904       -5.2995456820  MEMB      90              0.0000000000
     12036        90  POPC      C39           -22.1919778344       21.0160605468       -4.0107255663  MEMB      90              0.0000000000
     12037        90  POPC      H9X           -21.8184378805       22.0603208219       -3.9450760513  MEMB      90              0.0000000000
     12038        90  POPC      H9Y           -21.3537900778       20.2954542143       -3.8989727608  MEMB      90              0.0000000000
     12039        90  POPC      C310          -23.1182387789       20.7028688314       -2.7686199115  MEMB      90              0.0000000000
     12040        90  POPC      H10X          -22.4397975767       20.4638166219       -1.9219239336  MEMB      90              0.0000000000
     12041        90  POPC      H10Y          -23.8266439564       19.8606465499       -2.9207518979  MEMB      90              0.0000000000
     12042        90  POPC      C311          -24.0450892315       21.8274351363       -2.2605939127  MEMB      90              0.0000000000
     12043        90  POPC      H11X          -24.7934699631       21.3560929330       -1.5882232201  MEMB      90              0.0000000000
     12044        90  POPC      H11Y          -24.5003927430       22.3480150794       -3.1300856029  MEMB      90              0.0000000000
     12045        90  POPC      C312          -23.3424366850       22.9230767692       -1.5348067225  MEMB      90              0.0000000000
     12046        90  POPC      H12X          -22.4096919868       23.1408728353       -2.0977220402  MEMB      90              0.0000000000
     12047        90  POPC      H12Y          -23.0124828326       22.5188904962       -0.5539476556  MEMB      90              0.0000000000
     12048        90  POPC      C313          -24.0622558179       24.3344202333       -1.5136264773  MEMB      90              0.0000000000
     12049        90  POPC      H13X          -24.9171753397       24.1039467411       -0.8425722894  MEMB      90              0.0000000000
     12050        90  POPC      H13Y          -24.3020316387       24.7416717347       -2.5190993067  MEMB      90              0.0000000000
     12051        90  POPC      C314          -23.3803408034       25.5131213699       -0.8414541288  MEMB      90              0.0000000000
     12052        90  POPC      H14X          -24.0749923883       26.3801404391       -0.8338354152  MEMB      90              0.0000000000
     12053        90  POPC      H14Y          -22.4120809106       25.8854904172       -1.2391155477  MEMB      90              0.0000000000
     12054        90  POPC      C315          -22.8271480163       25.1267645112        0.6418127948  MEMB      90              0.0000000000
     12055        90  POPC      H15X          -22.1307244870       24.2614843821        0.6664174052  MEMB      90              0.0000000000
     12056        90  POPC      H15Y          -23.6970447085       24.7831692650        1.2414312538  MEMB      90              0.0000000000
     12057        90  POPC      C316          -22.1806356329       26.2825281646        1.3875619802  MEMB      90              0.0000000000
     12058        90  POPC      H16X          -21.2546487792       26.5909331197        0.8567547633  MEMB      90              0.0000000000
     12059        90  POPC      H16Y          -21.8852695977       25.8794806493        2.3798475381  MEMB      90              0.0000000000
     12060        90  POPC      H16Z          -22.8679809145       27.1537415979        1.4410825498  MEMB      90              0.0000000000
     12061        91  POPC      N              25.5068677009      -19.2452485475      -19.2969520644  MEMB      91              0.0000000000
     12062        91  POPC      C12            25.6978114189      -20.4494501797      -20.2105198494  MEMB      91              0.0000000000
     12063        91  POPC      H12A           25.6724909393      -20.1538746586      -21.2489772868  MEMB      91              0.0000000000
     12064        91  POPC      H12B           24.8403091324      -21.1046096696      -20.1674419527  MEMB      91              0.0000000000
     12065        91  POPC      C13            26.8544222933      -18.4736154591      -19.2615676086  MEMB      91              0.0000000000
     12066        91  POPC      H13A           27.6160433161      -19.1332747355      -18.8727449537  MEMB      91              0.0000000000
     12067        91  POPC      H13B           27.1845768014      -18.2509850218      -20.2654769011  MEMB      91              0.0000000000
     12068        91  POPC      H13C           26.8838148277      -17.6056136881      -18.6196101963  MEMB      91              0.0000000000
     12069        91  POPC      C14            24.5597189525      -18.2245875616      -19.7317866175  MEMB      91              0.0000000000
     12070        91  POPC      H14A           23.6087577697      -18.5961582229      -19.3796381617  MEMB      91              0.0000000000
     12071        91  POPC      H14B           24.6246260847      -17.2165259349      -19.3496888240  MEMB      91              0.0000000000
     12072        91  POPC      H14C           24.6835337954      -18.1429441167      -20.8015549006  MEMB      91              0.0000000000
     12073        91  POPC      C15            25.2154260376      -19.5986781327      -17.8756538825  MEMB      91              0.0000000000
     12074        91  POPC      H15A           24.1958436594      -19.9541474887      -17.8978656112  MEMB      91              0.0000000000
     12075        91  POPC      H15B           25.3563429083      -18.7518629967      -17.2203320902  MEMB      91              0.0000000000
     12076        91  POPC      H15C           25.8318505592      -20.4439450996      -17.6074291188  MEMB      91              0.0000000000
     12077        91  POPC      C11            27.0876329673      -21.2530706771      -20.1180820572  MEMB      91              0.0000000000
     12078        91  POPC      H11A           27.7987740602      -20.5854800281      -20.6499862617  MEMB      91              0.0000000000
     12079        91  POPC      H11B           27.0935126666      -22.1661127014      -20.7510438494  MEMB      91              0.0000000000
     12080        91  POPC      P              28.6639691736      -22.5085191959      -18.5633176874  MEMB      91              0.0000000000
     12081        91  POPC      O13            29.5797776460      -22.2411397251      -19.6532290272  MEMB      91              0.0000000000
     12082        91  POPC      O14            28.2376526690      -23.8874908882      -18.3985510417  MEMB      91              0.0000000000
     12083        91  POPC      O12            27.3835260579      -21.5795316538      -18.7367415171  MEMB      91              0.0000000000
     12084        91  POPC      O11            29.2445683002      -22.0289861736      -17.1535986472  MEMB      91              0.0000000000
     12085        91  POPC      C1             28.5276004114      -22.5049506896      -16.0538097110  MEMB      91              0.0000000000
     12086        91  POPC      HA             28.3352312779      -23.5949075054      -16.1502930594  MEMB      91              0.0000000000
     12087        91  POPC      HB             27.5615414157      -21.9856613886      -15.8766381758  MEMB      91              0.0000000000
     12088        91  POPC      C2             29.2640552976      -22.4416305312      -14.6342018947  MEMB      91              0.0000000000
     12089        91  POPC      HS             28.6837188852      -22.8547613769      -13.7816449557  MEMB      91              0.0000000000
     12090        91  POPC      O21            29.6892141962      -21.1088810368      -14.3407557560  MEMB      91              0.0000000000
     12091        91  POPC      C21            28.7712331863      -20.4432836926      -13.6067314618  MEMB      91              0.0000000000
     12092        91  POPC      O22            27.6186680260      -20.8636612120      -13.4507406216  MEMB      91              0.0000000000
     12093        91  POPC      C22            29.3161155846      -19.1207985763      -13.1200031747  MEMB      91              0.0000000000
     12094        91  POPC      H2R            28.4865307870      -18.3856110714      -13.0451066665  MEMB      91              0.0000000000
     12095        91  POPC      H2S            30.0498403112      -18.6620984407      -13.8168269125  MEMB      91              0.0000000000
     12096        91  POPC      C3             30.5658251753      -23.3092998355      -14.6584328749  MEMB      91              0.0000000000
     12097        91  POPC      HX             31.1531972861      -22.9533439162      -15.5317084889  MEMB      91              0.0000000000
     12098        91  POPC      HY             30.2001483658      -24.3422820906      -14.8415970430  MEMB      91              0.0000000000
     12099        91  POPC      O31            31.3659801894      -23.2409901054      -13.4626743062  MEMB      91              0.0000000000
     12100        91  POPC      C31            31.1132161324      -24.1348870060      -12.4595682732  MEMB      91              0.0000000000
     12101        91  POPC      O32            30.3236409896      -25.0437343200      -12.5803779028  MEMB      91              0.0000000000
     12102        91  POPC      C32            31.8935289573      -23.8485110314      -11.2199870560  MEMB      91              0.0000000000
     12103        91  POPC      H2X            32.0865993577      -22.7642431420      -11.0736738642  MEMB      91              0.0000000000
     12104        91  POPC      H2Y            32.8879614118      -24.2992091075      -11.4256472090  MEMB      91              0.0000000000
     12105        91  POPC      C23            29.9913670764      -19.1899720426      -11.7313412969  MEMB      91              0.0000000000
     12106        91  POPC      H3R            29.3570682355      -19.8032999389      -11.0562007256  MEMB      91              0.0000000000
     12107        91  POPC      H3S            30.0195965502      -18.1287902178      -11.4035949795  MEMB      91              0.0000000000
     12108        91  POPC      C24            31.4524516724      -19.8027584504      -11.7530693853  MEMB      91              0.0000000000
     12109        91  POPC      H4R            32.0225428769      -19.1851997781      -12.4796631155  MEMB      91              0.0000000000
     12110        91  POPC      H4S            31.4609353408      -20.8900009640      -11.9814392467  MEMB      91              0.0000000000
     12111        91  POPC      C25            32.2426836155      -19.6005297728      -10.4910516871  MEMB      91              0.0000000000
     12112        91  POPC      H5R            31.6944453768      -20.2563856796       -9.7813974737  MEMB      91              0.0000000000
     12113        91  POPC      H5S            32.1860362967      -18.5613479735      -10.1021892677  MEMB      91              0.0000000000
     12114        91  POPC      C26            33.6320134447      -20.1190469865      -10.5192046383  MEMB      91              0.0000000000
     12115        91  POPC      H6R            34.0986676574      -19.6645438933      -11.4191951498  MEMB      91              0.0000000000
     12116        91  POPC      H6S            33.5882365211      -21.1636715644      -10.8949230316  MEMB      91              0.0000000000
     12117        91  POPC      C27            34.4964190569      -20.0980376345       -9.1627675463  MEMB      91              0.0000000000
     12118        91  POPC      H7R            34.8071881179      -19.0780151513       -8.8508411543  MEMB      91              0.0000000000
     12119        91  POPC      H7S            35.4484216968      -20.6655154796       -9.2401002931  MEMB      91              0.0000000000
     12120        91  POPC      C28            33.7248166666      -20.6026959212       -7.9504845669  MEMB      91              0.0000000000
     12121        91  POPC      H8R            32.7280712278      -20.1256280009       -7.8354834445  MEMB      91              0.0000000000
     12122        91  POPC      H8S            34.3092326218      -20.2084036441       -7.0918153685  MEMB      91              0.0000000000
     12123        91  POPC      C29            33.5415161691      -22.1118285338       -7.8711673157  MEMB      91              0.0000000000
     12124        91  POPC      H91            33.8031063893      -22.6258161605       -8.8078570269  MEMB      91              0.0000000000
     12125        91  POPC      C210           33.2705254720      -22.8578772532       -6.7914462125  MEMB      91              0.0000000000
     12126        91  POPC      H101           33.0971408320      -23.9189567494       -7.0239279405  MEMB      91              0.0000000000
     12127        91  POPC      C211           33.0696912140      -22.3387021903       -5.3924837201  MEMB      91              0.0000000000
     12128        91  POPC      H11R           33.5474231278      -21.3416659600       -5.2828844747  MEMB      91              0.0000000000
     12129        91  POPC      H11S           33.5068150639      -23.0625998660       -4.6719175472  MEMB      91              0.0000000000
     12130        91  POPC      C212           31.5590491159      -22.3178487902       -5.0208214576  MEMB      91              0.0000000000
     12131        91  POPC      H12R           31.2126525047      -23.3708284630       -5.0954158546  MEMB      91              0.0000000000
     12132        91  POPC      H12S           30.9807153640      -21.7169843351       -5.7548604314  MEMB      91              0.0000000000
     12133        91  POPC      C213           31.0937903213      -21.7442520891       -3.6471352909  MEMB      91              0.0000000000
     12134        91  POPC      H13R           30.0438818451      -21.3821633600       -3.6772148879  MEMB      91              0.0000000000
     12135        91  POPC      H13S           31.7182108691      -20.8364640527       -3.5045131108  MEMB      91              0.0000000000
     12136        91  POPC      C214           31.4147168895      -22.7201539555       -2.4189884328  MEMB      91              0.0000000000
     12137        91  POPC      H14R           32.5103209827      -22.7161141193       -2.2347175002  MEMB      91              0.0000000000
     12138        91  POPC      H14S           31.0237692513      -23.7315410389       -2.6610173839  MEMB      91              0.0000000000
     12139        91  POPC      C215           30.6382047867      -22.4017283491       -1.1572016422  MEMB      91              0.0000000000
     12140        91  POPC      H15R           30.8285679785      -22.9770367122       -0.2260184905  MEMB      91              0.0000000000
     12141        91  POPC      H15S           29.5594297252      -22.6433605409       -1.2675628805  MEMB      91              0.0000000000
     12142        91  POPC      C216           30.8050824457      -20.8805120625       -0.7137430660  MEMB      91              0.0000000000
     12143        91  POPC      H16R           30.7723427002      -20.1708542831       -1.5679286009  MEMB      91              0.0000000000
     12144        91  POPC      H16S           31.8087369802      -20.7712558425       -0.2499942933  MEMB      91              0.0000000000
     12145        91  POPC      C217           29.7132703808      -20.4585760440        0.2739746862  MEMB      91              0.0000000000
     12146        91  POPC      H17R           29.6938130996      -21.2754765512        1.0267129067  MEMB      91              0.0000000000
     12147        91  POPC      H17S           28.7513144314      -20.5069729259       -0.2797586506  MEMB      91              0.0000000000
     12148        91  POPC      C218           29.8110279778      -19.0724843938        0.9092540271  MEMB      91              0.0000000000
     12149        91  POPC      H18R           29.7114254015      -18.3120434990        0.1054320846  MEMB      91              0.0000000000
     12150        91  POPC      H18S           30.7451628829      -18.8776220246        1.4782354744  MEMB      91              0.0000000000
     12151        91  POPC      H18T           29.0082840994      -19.0912700077        1.6770876526  MEMB      91              0.0000000000
     12152        91  POPC      C33            31.1882269870      -24.6290867039      -10.1249383683  MEMB      91              0.0000000000
     12153        91  POPC      H3X            31.7676080568      -24.8033589968       -9.1931298555  MEMB      91              0.0000000000
     12154        91  POPC      H3Y            31.0838229139      -25.6399775862      -10.5738483167  MEMB      91              0.0000000000
     12155        91  POPC      C34            29.8163982430      -23.9273568161       -9.7979783535  MEMB      91              0.0000000000
     12156        91  POPC      H4X            29.3009881469      -24.6079725972       -9.0870390642  MEMB      91              0.0000000000
     12157        91  POPC      H4Y            29.1355160743      -23.8593730370      -10.6732490023  MEMB      91              0.0000000000
     12158        91  POPC      C35            29.8067980023      -22.4795195611       -9.2505019933  MEMB      91              0.0000000000
     12159        91  POPC      H5X            30.3732817590      -21.7726585498       -9.8937477394  MEMB      91              0.0000000000
     12160        91  POPC      H5Y            30.3617874493      -22.4443153883       -8.2886972367  MEMB      91              0.0000000000
     12161        91  POPC      C36            28.3305917382      -22.0184471147       -8.9949872782  MEMB      91              0.0000000000
     12162        91  POPC      H6X            27.7886679724      -22.9047097082       -8.6010603850  MEMB      91              0.0000000000
     12163        91  POPC      H6Y            27.9322883026      -21.8110389233      -10.0111846991  MEMB      91              0.0000000000
     12164        91  POPC      C37            28.2342232094      -20.7904389115       -8.0834697341  MEMB      91              0.0000000000
     12165        91  POPC      H7X            28.6097301861      -19.8951244273       -8.6235877937  MEMB      91              0.0000000000
     12166        91  POPC      H7Y            28.9460394611      -20.8709441011       -7.2342598548  MEMB      91              0.0000000000
     12167        91  POPC      C38            26.7647721312      -20.5162314867       -7.6363058328  MEMB      91              0.0000000000
     12168        91  POPC      H8X            26.6513349020      -21.0563012777       -6.6720560705  MEMB      91              0.0000000000
     12169        91  POPC      H8Y            26.0767702663      -20.9053517278       -8.4170487588  MEMB      91              0.0000000000
     12170        91  POPC      C39            26.5331340530      -19.0414677101       -7.4155663136  MEMB      91              0.0000000000
     12171        91  POPC      H9X            25.4982599700      -18.7761840177       -7.1106391141  MEMB      91              0.0000000000
     12172        91  POPC      H9Y            26.5890746137      -18.5720063946       -8.4209500906  MEMB      91              0.0000000000
     12173        91  POPC      C310           27.3751685415      -18.3449396142       -6.3739566728  MEMB      91              0.0000000000
     12174        91  POPC      H10X           26.8966153603      -17.3614559353       -6.1788470993  MEMB      91              0.0000000000
     12175        91  POPC      H10Y           28.3926103356      -18.1549377507       -6.7777296319  MEMB      91              0.0000000000
     12176        91  POPC      C311           27.5969049904      -19.1133607831       -5.0596773352  MEMB      91              0.0000000000
     12177        91  POPC      H11X           28.1679979118      -18.3750618937       -4.4571088584  MEMB      91              0.0000000000
     12178        91  POPC      H11Y           28.2763178018      -19.9687256394       -5.2623353597  MEMB      91              0.0000000000
     12179        91  POPC      C312           26.3103774884      -19.5800425713       -4.2915130601  MEMB      91              0.0000000000
     12180        91  POPC      H12X           25.7340594941      -20.3019706879       -4.9087630347  MEMB      91              0.0000000000
     12181        91  POPC      H12Y           25.6502757365      -18.7035811869       -4.1171507394  MEMB      91              0.0000000000
     12182        91  POPC      C313           26.6755407052      -20.5141297342       -3.1154548502  MEMB      91              0.0000000000
     12183        91  POPC      H13X           27.3080665461      -20.0961580957       -2.3033400620  MEMB      91              0.0000000000
     12184        91  POPC      H13Y           27.2454352611      -21.3037413183       -3.6502964579  MEMB      91              0.0000000000
     12185        91  POPC      C314           25.3749262571      -21.1660094372       -2.4902956247  MEMB      91              0.0000000000
     12186        91  POPC      H14X           24.7994455868      -21.7912309868       -3.2060057784  MEMB      91              0.0000000000
     12187        91  POPC      H14Y           24.8147308261      -20.3003412568       -2.0766290870  MEMB      91              0.0000000000
     12188        91  POPC      C315           25.6839230453      -22.1783477416       -1.2809690933  MEMB      91              0.0000000000
     12189        91  POPC      H15X           24.7420308901      -22.5618682040       -0.8336745591  MEMB      91              0.0000000000
     12190        91  POPC      H15Y           26.1897007628      -21.6240753225       -0.4616449290  MEMB      91              0.0000000000
     12191        91  POPC      C316           26.4237254017      -23.3872741626       -1.8024539527  MEMB      91              0.0000000000
     12192        91  POPC      H16X           25.7493139476      -23.9735533233       -2.4625800699  MEMB      91              0.0000000000
     12193        91  POPC      H16Y           26.7724177974      -24.0577393672       -0.9880765304  MEMB      91              0.0000000000
     12194        91  POPC      H16Z           27.2934780232      -22.9834742272       -2.3635212921  MEMB      91              0.0000000000
     12195        92  POPC      N              22.1645191225      -30.6686400683      -19.3808702505  MEMB      92              0.0000000000
     12196        92  POPC      C12            22.1949657056      -29.2759441775      -18.8215151112  MEMB      92              0.0000000000
     12197        92  POPC      H12A           22.3247704905      -29.3055311870      -17.7497524368  MEMB      92              0.0000000000
     12198        92  POPC      H12B           21.2687565702      -28.7896362199      -19.0899199776  MEMB      92              0.0000000000
     12199        92  POPC      C13            23.4149941321      -31.3650181916      -19.1114073404  MEMB      92              0.0000000000
     12200        92  POPC      H13A           23.3872259712      -31.8390498154      -18.1413954130  MEMB      92              0.0000000000
     12201        92  POPC      H13B           23.5869897210      -32.0811869373      -19.9012932359  MEMB      92              0.0000000000
     12202        92  POPC      H13C           24.2591307222      -30.7015717708      -19.2283357830  MEMB      92              0.0000000000
     12203        92  POPC      C14            21.0422625862      -31.3568945878      -18.7591786954  MEMB      92              0.0000000000
     12204        92  POPC      H14A           21.0039018377      -31.3221806670      -17.6804185790  MEMB      92              0.0000000000
     12205        92  POPC      H14B           20.1455801561      -31.0005560456      -19.2443419271  MEMB      92              0.0000000000
     12206        92  POPC      H14C           21.0341241266      -32.4126021126      -18.9868083372  MEMB      92              0.0000000000
     12207        92  POPC      C15            22.0408151799      -30.6540577345      -20.9140581304  MEMB      92              0.0000000000
     12208        92  POPC      H15A           21.0561519476      -30.2247192742      -21.0258916561  MEMB      92              0.0000000000
     12209        92  POPC      H15B           22.0679142856      -31.6795412601      -21.2517695749  MEMB      92              0.0000000000
     12210        92  POPC      H15C           22.7886168675      -30.1719952610      -21.5262740944  MEMB      92              0.0000000000
     12211        92  POPC      C11            23.3655984319      -28.4143290593      -19.5099280420  MEMB      92              0.0000000000
     12212        92  POPC      H11A           23.1758134779      -27.3733123953      -19.1714212965  MEMB      92              0.0000000000
     12213        92  POPC      H11B           23.3662523311      -28.4191577656      -20.6209173006  MEMB      92              0.0000000000
     12214        92  POPC      P              25.7854508304      -27.6673223803      -18.5284928456  MEMB      92              0.0000000000
     12215        92  POPC      O13            25.6554465981      -26.4277259140      -19.3447815534  MEMB      92              0.0000000000
     12216        92  POPC      O14            27.1697842923      -28.2446091713      -18.5258116420  MEMB      92              0.0000000000
     12217        92  POPC      O12            24.7066596344      -28.7488800300      -19.0318436638  MEMB      92              0.0000000000
     12218        92  POPC      O11            25.3525954954      -27.2202905694      -17.0721127243  MEMB      92              0.0000000000
     12219        92  POPC      C1             24.0329610314      -26.9930215822      -16.5610833874  MEMB      92              0.0000000000
     12220        92  POPC      HA             23.5851778734      -27.9745740033      -16.2958173273  MEMB      92              0.0000000000
     12221        92  POPC      HB             23.4673391990      -26.4891401724      -17.3737926388  MEMB      92              0.0000000000
     12222        92  POPC      C2             23.9675318062      -25.9476793614      -15.4035803911  MEMB      92              0.0000000000
     12223        92  POPC      HS             24.4362832141      -25.0034097062      -15.7542196461  MEMB      92              0.0000000000
     12224        92  POPC      O21            24.7463072486      -26.3531449564      -14.2259515594  MEMB      92              0.0000000000
     12225        92  POPC      C21            25.2709932828      -25.4145428557      -13.4283332671  MEMB      92              0.0000000000
     12226        92  POPC      O22            25.2779606266      -24.2362755649      -13.6395890250  MEMB      92              0.0000000000
     12227        92  POPC      C22            25.8335824599      -26.1931942708      -12.2268173966  MEMB      92              0.0000000000
     12228        92  POPC      H2R            26.8231111087      -26.6751143558      -12.3781688343  MEMB      92              0.0000000000
     12229        92  POPC      H2S            25.1976070066      -27.0766806664      -12.0047635765  MEMB      92              0.0000000000
     12230        92  POPC      C3             22.5269578251      -25.6729423258      -14.8925645483  MEMB      92              0.0000000000
     12231        92  POPC      HX             21.9748905452      -25.0416648946      -15.6212839633  MEMB      92              0.0000000000
     12232        92  POPC      HY             22.5268531209      -25.0254886742      -13.9897219373  MEMB      92              0.0000000000
     12233        92  POPC      O31            21.8108307967      -26.8776211840      -14.8585759315  MEMB      92              0.0000000000
     12234        92  POPC      C31            21.3462332504      -27.1938604279      -13.6788668571  MEMB      92              0.0000000000
     12235        92  POPC      O32            21.2653668051      -26.4829009171      -12.7218285497  MEMB      92              0.0000000000
     12236        92  POPC      C32            20.9755777162      -28.6386552641      -13.6695342270  MEMB      92              0.0000000000
     12237        92  POPC      H2X            21.6631508659      -29.2975655414      -14.2417241732  MEMB      92              0.0000000000
     12238        92  POPC      H2Y            19.9682196751      -28.5705179052      -14.1331156153  MEMB      92              0.0000000000
     12239        92  POPC      C23            25.9200841667      -25.2884104859      -11.0060634488  MEMB      92              0.0000000000
     12240        92  POPC      H3R            26.6229719048      -24.4403437308      -11.1511589211  MEMB      92              0.0000000000
     12241        92  POPC      H3S            26.2349272739      -25.9685428959      -10.1859327729  MEMB      92              0.0000000000
     12242        92  POPC      C24            24.5711805358      -24.7165521740      -10.5397977942  MEMB      92              0.0000000000
     12243        92  POPC      H4R            23.8374326194      -25.4448242057      -10.1329135779  MEMB      92              0.0000000000
     12244        92  POPC      H4S            24.0993551905      -24.2942857557      -11.4527013025  MEMB      92              0.0000000000
     12245        92  POPC      C25            24.7444318344      -23.7416108157       -9.4023035471  MEMB      92              0.0000000000
     12246        92  POPC      H5R            23.6914951182      -23.4775178936       -9.1658713748  MEMB      92              0.0000000000
     12247        92  POPC      H5S            25.2635028163      -22.8096773265       -9.7127648511  MEMB      92              0.0000000000
     12248        92  POPC      C26            25.3213870877      -24.3842583492       -8.1313114455  MEMB      92              0.0000000000
     12249        92  POPC      H6R            26.3959556116      -24.6242144010       -8.2797864906  MEMB      92              0.0000000000
     12250        92  POPC      H6S            24.8049311382      -25.3454698998       -7.9223455925  MEMB      92              0.0000000000
     12251        92  POPC      C27            25.2597924713      -23.5589896178       -6.9218450695  MEMB      92              0.0000000000
     12252        92  POPC      H7R            24.2382151767      -23.1342115170       -6.8205304308  MEMB      92              0.0000000000
     12253        92  POPC      H7S            25.9841320498      -22.7638018772       -7.1999275636  MEMB      92              0.0000000000
     12254        92  POPC      C28            25.5893719502      -24.3013618912       -5.6361312013  MEMB      92              0.0000000000
     12255        92  POPC      H8R            25.7212826390      -23.5002179251       -4.8777851018  MEMB      92              0.0000000000
     12256        92  POPC      H8S            26.6208488551      -24.7090797158       -5.7004940857  MEMB      92              0.0000000000
     12257        92  POPC      C29            24.4397176652      -25.3230049224       -5.3428214678  MEMB      92              0.0000000000
     12258        92  POPC      H91            23.4062834921      -24.9659799407       -5.2222113777  MEMB      92              0.0000000000
     12259        92  POPC      C210           24.7062263284      -26.5985831087       -5.0869572281  MEMB      92              0.0000000000
     12260        92  POPC      H101           23.8294457605      -27.2396960731       -4.9130894664  MEMB      92              0.0000000000
     12261        92  POPC      C211           26.0803068129      -27.3134432140       -5.0810855432  MEMB      92              0.0000000000
     12262        92  POPC      H11R           26.5497716709      -27.0770025345       -6.0598702253  MEMB      92              0.0000000000
     12263        92  POPC      H11S           25.9550800500      -28.4173546548       -5.0854207706  MEMB      92              0.0000000000
     12264        92  POPC      C212           26.9213530209      -26.9948939731       -3.8104697452  MEMB      92              0.0000000000
     12265        92  POPC      H12R           26.7714578473      -25.9152592497       -3.5954312550  MEMB      92              0.0000000000
     12266        92  POPC      H12S           27.9372538070      -27.4287240133       -3.9290362424  MEMB      92              0.0000000000
     12267        92  POPC      C213           26.3807869095      -27.6652150156       -2.4993369508  MEMB      92              0.0000000000
     12268        92  POPC      H13R           26.8832161761      -28.6450483720       -2.6470281600  MEMB      92              0.0000000000
     12269        92  POPC      H13S           25.2818361006      -27.7612527106       -2.3674086821  MEMB      92              0.0000000000
     12270        92  POPC      C214           26.9908862778      -27.0275988190       -1.2301954854  MEMB      92              0.0000000000
     12271        92  POPC      H14R           28.0610041832      -27.3261244206       -1.2373464582  MEMB      92              0.0000000000
     12272        92  POPC      H14S           26.7020912877      -27.6922958297       -0.3881162970  MEMB      92              0.0000000000
     12273        92  POPC      C215           26.7110511378      -25.5752147582       -0.8798233707  MEMB      92              0.0000000000
     12274        92  POPC      H15R           25.6228146148      -25.3563793670       -0.8332044967  MEMB      92              0.0000000000
     12275        92  POPC      H15S           27.0968623471      -24.9539145915       -1.7161582605  MEMB      92              0.0000000000
     12276        92  POPC      C216           27.4187426129      -25.2089215148        0.4953189551  MEMB      92              0.0000000000
     12277        92  POPC      H16R           28.4865108722      -25.4912631912        0.3750055475  MEMB      92              0.0000000000
     12278        92  POPC      H16S           27.0113511526      -25.9453099047        1.2206358322  MEMB      92              0.0000000000
     12279        92  POPC      C217           27.1636827772      -23.7910076729        0.8723900292  MEMB      92              0.0000000000
     12280        92  POPC      H17R           26.1317607354      -23.4604262906        0.6270850734  MEMB      92              0.0000000000
     12281        92  POPC      H17S           27.8095006652      -23.1738020011        0.2118604332  MEMB      92              0.0000000000
     12282        92  POPC      C218           27.5570393154      -23.4540786968        2.2336941981  MEMB      92              0.0000000000
     12283        92  POPC      H18R           27.2330904229      -22.4025629578        2.3876192265  MEMB      92              0.0000000000
     12284        92  POPC      H18S           28.6630058844      -23.4889705475        2.1339851375  MEMB      92              0.0000000000
     12285        92  POPC      H18T           27.1336650064      -24.1015791068        3.0310766551  MEMB      92              0.0000000000
     12286        92  POPC      C33            20.7631006478      -29.1629760424      -12.2519165540  MEMB      92              0.0000000000
     12287        92  POPC      H3X            20.3022237231      -30.1586153431      -12.4268887598  MEMB      92              0.0000000000
     12288        92  POPC      H3Y            20.0423360730      -28.5310942998      -11.6901822798  MEMB      92              0.0000000000
     12289        92  POPC      C34            21.9578150438      -29.3570203116      -11.3073853839  MEMB      92              0.0000000000
     12290        92  POPC      H4X            22.4090304121      -28.3945264600      -10.9843821766  MEMB      92              0.0000000000
     12291        92  POPC      H4Y            22.7449845450      -29.9902549226      -11.7696615787  MEMB      92              0.0000000000
     12292        92  POPC      C35            21.4179171556      -30.0852429202      -10.0403321016  MEMB      92              0.0000000000
     12293        92  POPC      H5X            20.6391023381      -30.7986136441      -10.3851069088  MEMB      92              0.0000000000
     12294        92  POPC      H5Y            20.9657308491      -29.3141188128       -9.3806219977  MEMB      92              0.0000000000
     12295        92  POPC      C36            22.4120006586      -30.8902367871       -9.1145316625  MEMB      92              0.0000000000
     12296        92  POPC      H6X            22.9207151933      -31.5205991679       -9.8749088574  MEMB      92              0.0000000000
     12297        92  POPC      H6Y            21.8522669877      -31.4589889077       -8.3415240893  MEMB      92              0.0000000000
     12298        92  POPC      C37            23.4537799918      -29.9574270511       -8.4013165620  MEMB      92              0.0000000000
     12299        92  POPC      H7X            22.8359378771      -29.2616521970       -7.7942836143  MEMB      92              0.0000000000
     12300        92  POPC      H7Y            23.9758276124      -29.3039929528       -9.1326242391  MEMB      92              0.0000000000
     12301        92  POPC      C38            24.3661823912      -30.7527530814       -7.4973229868  MEMB      92              0.0000000000
     12302        92  POPC      H8X            25.2865601356      -30.2471024668       -7.1346335751  MEMB      92              0.0000000000
     12303        92  POPC      H8Y            24.7440921287      -31.5940454984       -8.1167844843  MEMB      92              0.0000000000
     12304        92  POPC      C39            23.5570948270      -31.4085775613       -6.2546510577  MEMB      92              0.0000000000
     12305        92  POPC      H9X            24.2027378833      -32.2307269160       -5.8784381373  MEMB      92              0.0000000000
     12306        92  POPC      H9Y            22.6814061948      -31.9681669765       -6.6475257368  MEMB      92              0.0000000000
     12307        92  POPC      C310           23.1959657617      -30.4985975166       -5.0546217736  MEMB      92              0.0000000000
     12308        92  POPC      H10X           22.2337477473      -29.9947429485       -5.2882634008  MEMB      92              0.0000000000
     12309        92  POPC      H10Y           24.0135523279      -29.7465665676       -5.0366651178  MEMB      92              0.0000000000
     12310        92  POPC      C311           23.0851262404      -31.2746218877       -3.7228705963  MEMB      92              0.0000000000
     12311        92  POPC      H11X           23.9358917443      -31.9860107041       -3.6561994761  MEMB      92              0.0000000000
     12312        92  POPC      H11Y           22.1442811898      -31.8654123733       -3.7328040549  MEMB      92              0.0000000000
     12313        92  POPC      C312           23.0289739627      -30.2891690784       -2.4771468518  MEMB      92              0.0000000000
     12314        92  POPC      H12X           24.0947914942      -30.1237544531       -2.2107016332  MEMB      92              0.0000000000
     12315        92  POPC      H12Y           22.7401291593      -30.9913165971       -1.6660485490  MEMB      92              0.0000000000
     12316        92  POPC      C313           22.1135502347      -29.0854429568       -2.6097435141  MEMB      92              0.0000000000
     12317        92  POPC      H13X           21.1567178161      -29.4040784214       -3.0758595699  MEMB      92              0.0000000000
     12318        92  POPC      H13Y           22.4459935914      -28.2966037928       -3.3179351671  MEMB      92              0.0000000000
     12319        92  POPC      C314           21.8377531313      -28.3252021141       -1.2742124270  MEMB      92              0.0000000000
     12320        92  POPC      H14X           22.7903412249      -28.1750831996       -0.7225247906  MEMB      92              0.0000000000
     12321        92  POPC      H14Y           21.2605706182      -28.9525994228       -0.5617852572  MEMB      92              0.0000000000
     12322        92  POPC      C315           21.2006344374      -26.9377363038       -1.5063262006  MEMB      92              0.0000000000
     12323        92  POPC      H15X           21.0513191851      -26.4966363132       -0.4976351115  MEMB      92              0.0000000000
     12324        92  POPC      H15Y           20.1934947998      -27.1449915167       -1.9270823099  MEMB      92              0.0000000000
     12325        92  POPC      C316           21.9953209209      -26.0068889783       -2.4428140516  MEMB      92              0.0000000000
     12326        92  POPC      H16X           21.7613871715      -24.9675167387       -2.1276909803  MEMB      92              0.0000000000
     12327        92  POPC      H16Y           21.6937942893      -26.1068097491       -3.5074345182  MEMB      92              0.0000000000
     12328        92  POPC      H16Z           23.0702657205      -26.2545149903       -2.3105415514  MEMB      92              0.0000000000
     12329        93  POPC      N              29.0463633500       24.6259568426      -21.0567697251  MEMB      93              0.0000000000
     12330        93  POPC      C12            29.0111275769       25.5378683351      -19.8923722828  MEMB      93              0.0000000000
     12331        93  POPC      H12A           28.0188569049       25.5764390066      -19.4677417783  MEMB      93              0.0000000000
     12332        93  POPC      H12B           29.2006427653       26.5606718282      -20.1828151367  MEMB      93              0.0000000000
     12333        93  POPC      C13            28.1660096294       23.3792886876      -20.9294293963  MEMB      93              0.0000000000
     12334        93  POPC      H13A           28.3108550592       22.7046713748      -21.7602791681  MEMB      93              0.0000000000
     12335        93  POPC      H13B           28.4883987187       22.7253810924      -20.1326420459  MEMB      93              0.0000000000
     12336        93  POPC      H13C           27.1540040843       23.6891589247      -20.7144287912  MEMB      93              0.0000000000
     12337        93  POPC      C14            28.3634659131       25.4332748055      -22.1591503296  MEMB      93              0.0000000000
     12338        93  POPC      H14A           28.1890856449       24.7647689855      -22.9892656629  MEMB      93              0.0000000000
     12339        93  POPC      H14B           27.4429026273       25.7801732225      -21.7134770863  MEMB      93              0.0000000000
     12340        93  POPC      H14C           29.0680567470       26.2044911071      -22.4333351429  MEMB      93              0.0000000000
     12341        93  POPC      C15            30.4613146151       24.2873081712      -21.5642518680  MEMB      93              0.0000000000
     12342        93  POPC      H15A           30.4626751542       23.6268304234      -22.4187501088  MEMB      93              0.0000000000
     12343        93  POPC      H15B           30.9433572287       23.7919553986      -20.7343961708  MEMB      93              0.0000000000
     12344        93  POPC      H15C           31.0115302792       25.1937424001      -21.7692877411  MEMB      93              0.0000000000
     12345        93  POPC      C11            30.0270016621       25.1652864040      -18.7983322929  MEMB      93              0.0000000000
     12346        93  POPC      H11A           29.7213843241       25.8120830469      -17.9482892241  MEMB      93              0.0000000000
     12347        93  POPC      H11B           31.0097882497       25.4130248346      -19.2533897146  MEMB      93              0.0000000000
     12348        93  POPC      P              30.2747514279       23.4555327421      -16.8561684582  MEMB      93              0.0000000000
     12349        93  POPC      O13            31.3515342326       24.3374767826      -16.3072980673  MEMB      93              0.0000000000
     12350        93  POPC      O14            30.5353667787       21.9757449576      -16.8145473699  MEMB      93              0.0000000000
     12351        93  POPC      O12            30.1288711397       23.8180351651      -18.3616615399  MEMB      93              0.0000000000
     12352        93  POPC      O11            28.9150276729       23.8534582104      -16.2600186652  MEMB      93              0.0000000000
     12353        93  POPC      C1             27.7990973118       22.9750904990      -16.5435720689  MEMB      93              0.0000000000
     12354        93  POPC      HA             28.1187550872       22.0659214052      -17.0963393694  MEMB      93              0.0000000000
     12355        93  POPC      HB             27.1050231281       23.4936990542      -17.2390052920  MEMB      93              0.0000000000
     12356        93  POPC      C2             27.1665276104       22.6210061211      -15.2282189780  MEMB      93              0.0000000000
     12357        93  POPC      HS             26.1109226959       22.2871190928      -15.3206243545  MEMB      93              0.0000000000
     12358        93  POPC      O21            27.1803085784       23.6068135810      -14.2273782686  MEMB      93              0.0000000000
     12359        93  POPC      C21            26.2022310084       24.4740715890      -14.2164943835  MEMB      93              0.0000000000
     12360        93  POPC      O22            25.1501596594       24.4072776753      -14.8337319728  MEMB      93              0.0000000000
     12361        93  POPC      C22            26.6397698524       25.7405634023      -13.3891808352  MEMB      93              0.0000000000
     12362        93  POPC      H2R            25.7925326190       26.4415321994      -13.2305846467  MEMB      93              0.0000000000
     12363        93  POPC      H2S            27.4561134498       26.2954176209      -13.8991225276  MEMB      93              0.0000000000
     12364        93  POPC      C3             27.8171330220       21.3168831307      -14.5881766611  MEMB      93              0.0000000000
     12365        93  POPC      HX             27.8442071176       20.4560474774      -15.2899956226  MEMB      93              0.0000000000
     12366        93  POPC      HY             27.0887860186       20.9795626457      -13.8200319705  MEMB      93              0.0000000000
     12367        93  POPC      O31            29.0598720662       21.5570851425      -13.9933516412  MEMB      93              0.0000000000
     12368        93  POPC      C31            29.3508689251       20.6996006222      -12.9710730770  MEMB      93              0.0000000000
     12369        93  POPC      O32            28.7946407508       19.6858405517      -12.6411549173  MEMB      93              0.0000000000
     12370        93  POPC      C32            30.6778499727       21.2689096797      -12.3137178805  MEMB      93              0.0000000000
     12371        93  POPC      H2X            31.2844070312       21.7295807022      -13.1225391112  MEMB      93              0.0000000000
     12372        93  POPC      H2Y            31.2112603214       20.3969704530      -11.8783828945  MEMB      93              0.0000000000
     12373        93  POPC      C23            27.0537974317       25.2929879842      -12.0281929430  MEMB      93              0.0000000000
     12374        93  POPC      H3R            27.8823994197       24.5701652596      -12.1871491368  MEMB      93              0.0000000000
     12375        93  POPC      H3S            26.1522987822       24.9249597572      -11.4932379817  MEMB      93              0.0000000000
     12376        93  POPC      C24            27.4761921771       26.4104924482      -11.0138404524  MEMB      93              0.0000000000
     12377        93  POPC      H4R            26.6336474878       27.1296642328      -10.9288007267  MEMB      93              0.0000000000
     12378        93  POPC      H4S            28.2947803829       27.0094545327      -11.4671384019  MEMB      93              0.0000000000
     12379        93  POPC      C25            27.8662006561       25.9411783965       -9.6216411908  MEMB      93              0.0000000000
     12380        93  POPC      H5R            28.3959462843       26.7383676746       -9.0575671235  MEMB      93              0.0000000000
     12381        93  POPC      H5S            28.5346516090       25.0576332556       -9.7043593904  MEMB      93              0.0000000000
     12382        93  POPC      C26            26.8094163459       25.4965585342       -8.5987306847  MEMB      93              0.0000000000
     12383        93  POPC      H6R            25.9330378449       26.1789380052       -8.6240255467  MEMB      93              0.0000000000
     12384        93  POPC      H6S            27.3150920430       25.6193009668       -7.6171265500  MEMB      93              0.0000000000
     12385        93  POPC      C27            26.2704822239       24.1065909743       -8.8108758704  MEMB      93              0.0000000000
     12386        93  POPC      H7R            27.1031220319       23.3711707803       -8.8246303566  MEMB      93              0.0000000000
     12387        93  POPC      H7S            25.6685172957       24.0275861617       -9.7413150994  MEMB      93              0.0000000000
     12388        93  POPC      C28            25.4005451450       23.6464728215       -7.5695908769  MEMB      93              0.0000000000
     12389        93  POPC      H8R            24.5669045430       24.3692795955       -7.4395368482  MEMB      93              0.0000000000
     12390        93  POPC      H8S            25.9282296176       23.6700394985       -6.5921893579  MEMB      93              0.0000000000
     12391        93  POPC      C29            24.8537590679       22.1966857476       -7.6701083601  MEMB      93              0.0000000000
     12392        93  POPC      H91            23.7601273813       22.0812955494       -7.6445141159  MEMB      93              0.0000000000
     12393        93  POPC      C210           25.5150975633       21.0093668019       -7.8440959341  MEMB      93              0.0000000000
     12394        93  POPC      H101           25.0154767387       20.0299172930       -7.8766244063  MEMB      93              0.0000000000
     12395        93  POPC      C211           27.0005570511       20.8280850663       -7.8798142138  MEMB      93              0.0000000000
     12396        93  POPC      H11R           27.3935991966       21.3200185685       -8.7951499530  MEMB      93              0.0000000000
     12397        93  POPC      H11S           27.2966749019       19.7572757619       -7.8780951097  MEMB      93              0.0000000000
     12398        93  POPC      C212           27.8354531593       21.4153293331       -6.6620365835  MEMB      93              0.0000000000
     12399        93  POPC      H12R           27.2951322449       21.0732106737       -5.7535601435  MEMB      93              0.0000000000
     12400        93  POPC      H12S           28.0530183984       22.5015779297       -6.7460030500  MEMB      93              0.0000000000
     12401        93  POPC      C213           29.2153601260       20.8429130758       -6.5886418602  MEMB      93              0.0000000000
     12402        93  POPC      H13R           29.8002411054       20.8694559001       -7.5328501239  MEMB      93              0.0000000000
     12403        93  POPC      H13S           29.1893911284       19.7450973908       -6.4199779072  MEMB      93              0.0000000000
     12404        93  POPC      C214           29.9351839994       21.5542845181       -5.4174619828  MEMB      93              0.0000000000
     12405        93  POPC      H14R           29.5888053309       21.2177840550       -4.4169069065  MEMB      93              0.0000000000
     12406        93  POPC      H14S           29.7243407488       22.6145552553       -5.6737661992  MEMB      93              0.0000000000
     12407        93  POPC      C215           31.4382382243       21.2306545234       -5.4788787928  MEMB      93              0.0000000000
     12408        93  POPC      H15R           31.8037057401       21.6019879408       -6.4601359417  MEMB      93              0.0000000000
     12409        93  POPC      H15S           31.6650045276       20.1520699451       -5.3390444757  MEMB      93              0.0000000000
     12410        93  POPC      C216           32.0908109582       21.9869135694       -4.2635632091  MEMB      93              0.0000000000
     12411        93  POPC      H16R           31.6215270580       22.9938985883       -4.2722087353  MEMB      93              0.0000000000
     12412        93  POPC      H16S           33.1448726498       22.1289470358       -4.5846574848  MEMB      93              0.0000000000
     12413        93  POPC      C217           31.9189693965       21.2446890490       -2.9172504574  MEMB      93              0.0000000000
     12414        93  POPC      H17R           32.1532222737       20.1751683164       -3.1058564109  MEMB      93              0.0000000000
     12415        93  POPC      H17S           30.8462674965       21.2866679979       -2.6311215661  MEMB      93              0.0000000000
     12416        93  POPC      C218           32.6283106587       21.7828302779       -1.7076297196  MEMB      93              0.0000000000
     12417        93  POPC      H18R           33.7132519209       21.5917668289       -1.8515666301  MEMB      93              0.0000000000
     12418        93  POPC      H18S           32.2341900874       21.3087157710       -0.7833969821  MEMB      93              0.0000000000
     12419        93  POPC      H18T           32.3188011107       22.8440849833       -1.5968898085  MEMB      93              0.0000000000
     12420        93  POPC      C33            30.3302469579       22.1835463084      -11.1971874975  MEMB      93              0.0000000000
     12421        93  POPC      H3X            29.5884237241       21.6905216669      -10.5331497302  MEMB      93              0.0000000000
     12422        93  POPC      H3Y            29.9070711200       23.1099396700      -11.6410780715  MEMB      93              0.0000000000
     12423        93  POPC      C34            31.5814052854       22.4188433335      -10.3029188693  MEMB      93              0.0000000000
     12424        93  POPC      H4X            32.4179984876       22.4719639292      -11.0320350730  MEMB      93              0.0000000000
     12425        93  POPC      H4Y            31.6698778523       21.5500837373       -9.6160777135  MEMB      93              0.0000000000
     12426        93  POPC      C35            31.4279186613       23.5965407248       -9.4621876352  MEMB      93              0.0000000000
     12427        93  POPC      H5X            30.9283124749       23.2885529404       -8.5188645400  MEMB      93              0.0000000000
     12428        93  POPC      H5Y            30.7743570242       24.4252959588       -9.8090921362  MEMB      93              0.0000000000
     12429        93  POPC      C36            32.7606159541       24.2105977430       -9.0568692244  MEMB      93              0.0000000000
     12430        93  POPC      H6X            33.1230980583       24.9240332683       -9.8275431206  MEMB      93              0.0000000000
     12431        93  POPC      H6Y            33.4760319113       23.3732208257       -8.9109213952  MEMB      93              0.0000000000
     12432        93  POPC      C37            32.6990000796       25.1141538463       -7.8367563394  MEMB      93              0.0000000000
     12433        93  POPC      H7X            33.6570930063       25.5862110524       -7.5309111308  MEMB      93              0.0000000000
     12434        93  POPC      H7Y            32.4388431267       24.4133218938       -7.0148838936  MEMB      93              0.0000000000
     12435        93  POPC      C38            31.6393791995       26.2257410490       -7.7651865807  MEMB      93              0.0000000000
     12436        93  POPC      H8X            30.6198359917       25.8041737063       -7.8960815177  MEMB      93              0.0000000000
     12437        93  POPC      H8Y            31.9138039511       26.9616436923       -8.5509721472  MEMB      93              0.0000000000
     12438        93  POPC      C39            31.6497978016       26.9375576575       -6.4685953203  MEMB      93              0.0000000000
     12439        93  POPC      H9X            30.9459013423       27.7911846923       -6.5694492443  MEMB      93              0.0000000000
     12440        93  POPC      H9Y            32.7177053031       27.2084227041       -6.3253238068  MEMB      93              0.0000000000
     12441        93  POPC      C310           31.2832185639       26.0298014688       -5.3175951312  MEMB      93              0.0000000000
     12442        93  POPC      H10X           31.4262311690       26.7026626535       -4.4451690407  MEMB      93              0.0000000000
     12443        93  POPC      H10Y           31.9930442691       25.1827979367       -5.2033426102  MEMB      93              0.0000000000
     12444        93  POPC      C311           29.8439530700       25.7475616471       -5.2458540465  MEMB      93              0.0000000000
     12445        93  POPC      H11X           29.6771115966       24.9755607746       -6.0271986720  MEMB      93              0.0000000000
     12446        93  POPC      H11Y           29.3251038832       26.7152169093       -5.4154415252  MEMB      93              0.0000000000
     12447        93  POPC      C312           29.2648759618       25.3000756251       -3.9300247501  MEMB      93              0.0000000000
     12448        93  POPC      H12X           29.6231048980       25.8306546801       -3.0220163565  MEMB      93              0.0000000000
     12449        93  POPC      H12Y           29.5707779776       24.2565580775       -3.7023930723  MEMB      93              0.0000000000
     12450        93  POPC      C313           27.6922083509       25.2071097899       -3.8142383128  MEMB      93              0.0000000000
     12451        93  POPC      H13X           27.5881389923       24.1189934137       -4.0129677645  MEMB      93              0.0000000000
     12452        93  POPC      H13Y           27.1646804266       25.8632613684       -4.5391530734  MEMB      93              0.0000000000
     12453        93  POPC      C314           27.1638203829       25.4419363962       -2.4059927742  MEMB      93              0.0000000000
     12454        93  POPC      H14X           26.0590319742       25.3601802197       -2.3218522448  MEMB      93              0.0000000000
     12455        93  POPC      H14Y           27.4659193155       26.4559069613       -2.0669926478  MEMB      93              0.0000000000
     12456        93  POPC      C315           27.6676696217       24.3607639385       -1.3304475291  MEMB      93              0.0000000000
     12457        93  POPC      H15X           28.7606676660       24.1918521904       -1.4360191698  MEMB      93              0.0000000000
     12458        93  POPC      H15Y           27.3122609110       23.3919960719       -1.7421453992  MEMB      93              0.0000000000
     12459        93  POPC      C316           27.2411075995       24.7049224908        0.0761537598  MEMB      93              0.0000000000
     12460        93  POPC      H16X           26.1420331748       24.8302672692        0.1793264678  MEMB      93              0.0000000000
     12461        93  POPC      H16Y           27.5008143315       25.7525363010        0.3395515837  MEMB      93              0.0000000000
     12462        93  POPC      H16Z           27.7047038928       24.0083520497        0.8070364910  MEMB      93              0.0000000000
     12463        94  POPC      N             -30.1059203628      -29.6340034072      -19.9421042152  MEMB      94              0.0000000000
     12464        94  POPC      C12           -29.3717337782      -29.9599439494      -18.5464437382  MEMB      94              0.0000000000
     12465        94  POPC      H12A          -28.7063536693      -30.7956150358      -18.7055763651  MEMB      94              0.0000000000
     12466        94  POPC      H12B          -30.0617224116      -30.2026357314      -17.7518266000  MEMB      94              0.0000000000
     12467        94  POPC      C13           -29.1860866138      -29.3719382417      -21.1410055321  MEMB      94              0.0000000000
     12468        94  POPC      H13A          -28.4334674328      -28.7714858852      -20.6516984261  MEMB      94              0.0000000000
     12469        94  POPC      H13B          -28.7909378368      -30.2710424480      -21.5903041408  MEMB      94              0.0000000000
     12470        94  POPC      H13C          -29.6329532375      -28.8261239188      -21.9588055659  MEMB      94              0.0000000000
     12471        94  POPC      C14           -30.9396122323      -30.7690317028      -20.3054473435  MEMB      94              0.0000000000
     12472        94  POPC      H14A          -31.2570069220      -30.6830114795      -21.3341654705  MEMB      94              0.0000000000
     12473        94  POPC      H14B          -30.3726926454      -31.6872270003      -20.3492640031  MEMB      94              0.0000000000
     12474        94  POPC      H14C          -31.7235899549      -30.9677103218      -19.5896920466  MEMB      94              0.0000000000
     12475        94  POPC      C15           -30.9749085399      -28.4215850005      -19.6851853168  MEMB      94              0.0000000000
     12476        94  POPC      H15A          -31.6204538311      -28.5768211066      -18.8333795836  MEMB      94              0.0000000000
     12477        94  POPC      H15B          -31.5451027607      -28.1069800189      -20.5467550615  MEMB      94              0.0000000000
     12478        94  POPC      H15C          -30.4367463295      -27.5761184381      -19.2827334494  MEMB      94              0.0000000000
     12479        94  POPC      C11           -28.5047245658      -28.8656324075      -17.9617199142  MEMB      94              0.0000000000
     12480        94  POPC      H11A          -28.2441372639      -29.2374912781      -16.9477493235  MEMB      94              0.0000000000
     12481        94  POPC      H11B          -29.1112929063      -27.9411416835      -17.8534945980  MEMB      94              0.0000000000
     12482        94  POPC      P             -26.4826068432      -27.3472704303      -18.2984963429  MEMB      94              0.0000000000
     12483        94  POPC      O13           -27.5177675954      -26.3236042010      -18.2005341299  MEMB      94              0.0000000000
     12484        94  POPC      O14           -25.4004565680      -27.0539813293      -19.2743774254  MEMB      94              0.0000000000
     12485        94  POPC      O12           -27.3422244133      -28.6480285252      -18.7390134183  MEMB      94              0.0000000000
     12486        94  POPC      O11           -25.8587455446      -27.8187559975      -16.9056726221  MEMB      94              0.0000000000
     12487        94  POPC      C1            -24.8256156197      -28.7878607318      -17.0829279406  MEMB      94              0.0000000000
     12488        94  POPC      HA            -23.9165325935      -28.4304482509      -17.6122154727  MEMB      94              0.0000000000
     12489        94  POPC      HB            -25.2164902291      -29.6174328441      -17.7101025690  MEMB      94              0.0000000000
     12490        94  POPC      C2            -24.3498174934      -29.2170548732      -15.7390547046  MEMB      94              0.0000000000
     12491        94  POPC      HS            -23.7843217540      -30.1510558613      -15.9444264435  MEMB      94              0.0000000000
     12492        94  POPC      O21           -25.4652209081      -29.4487547291      -14.8261833210  MEMB      94              0.0000000000
     12493        94  POPC      C21           -26.4262995791      -30.3291294502      -15.1181363990  MEMB      94              0.0000000000
     12494        94  POPC      O22           -26.4427657156      -31.2380395866      -15.9756520593  MEMB      94              0.0000000000
     12495        94  POPC      C22           -27.6696634687      -30.0904587089      -14.2627398398  MEMB      94              0.0000000000
     12496        94  POPC      H2R           -28.5922520825      -30.3741533506      -14.8128930292  MEMB      94              0.0000000000
     12497        94  POPC      H2S           -27.7523107946      -29.0836680561      -13.8002866532  MEMB      94              0.0000000000
     12498        94  POPC      C3            -23.4173531629      -28.1341216993      -15.0650575384  MEMB      94              0.0000000000
     12499        94  POPC      HX            -22.6664673673      -27.8694862937      -15.8399507038  MEMB      94              0.0000000000
     12500        94  POPC      HY            -23.0360489016      -28.7304064936      -14.2086857194  MEMB      94              0.0000000000
     12501        94  POPC      O31           -24.0848483130      -26.9144784282      -14.6346443057  MEMB      94              0.0000000000
     12502        94  POPC      C31           -23.8397373003      -26.5121397037      -13.4195720027  MEMB      94              0.0000000000
     12503        94  POPC      O32           -23.1765649387      -27.1025486599      -12.5559909060  MEMB      94              0.0000000000
     12504        94  POPC      C32           -24.7016729787      -25.2452334241      -13.2643156064  MEMB      94              0.0000000000
     12505        94  POPC      H2X           -24.4591275639      -24.6430400094      -14.1659008465  MEMB      94              0.0000000000
     12506        94  POPC      H2Y           -24.4552912477      -24.6592946735      -12.3531112577  MEMB      94              0.0000000000
     12507        94  POPC      C23           -27.6051065315      -30.9928602531      -13.0038363401  MEMB      94              0.0000000000
     12508        94  POPC      H3R           -28.1795038483      -30.4859087019      -12.1992314184  MEMB      94              0.0000000000
     12509        94  POPC      H3S           -26.5695068957      -31.2224862363      -12.6734938666  MEMB      94              0.0000000000
     12510        94  POPC      C24           -28.3510415484      -32.3228201197      -13.2164548844  MEMB      94              0.0000000000
     12511        94  POPC      H4R           -27.9317901148      -32.8696857864      -14.0879402782  MEMB      94              0.0000000000
     12512        94  POPC      H4S           -29.4093546758      -32.1794430108      -13.5226202903  MEMB      94              0.0000000000
     12513        94  POPC      C25           -28.2570114183      -33.4203322480      -12.0387309773  MEMB      94              0.0000000000
     12514        94  POPC      H5R           -27.4696819608      -33.0868321808      -11.3293575149  MEMB      94              0.0000000000
     12515        94  POPC      H5S           -27.9738769296      -34.2888636913      -12.6710356903  MEMB      94              0.0000000000
     12516        94  POPC      C26           -29.5272920450      -33.5695012433      -11.2260158236  MEMB      94              0.0000000000
     12517        94  POPC      H6R           -29.3758779466      -34.5784417160      -10.7862035531  MEMB      94              0.0000000000
     12518        94  POPC      H6S           -30.4197558047      -33.5503382931      -11.8874253858  MEMB      94              0.0000000000
     12519        94  POPC      C27           -29.7061298012      -32.5478636792      -10.0953356605  MEMB      94              0.0000000000
     12520        94  POPC      H7R           -30.7476612371      -32.1649859837      -10.1495344103  MEMB      94              0.0000000000
     12521        94  POPC      H7S           -28.9011478089      -31.7823197386      -10.0789741399  MEMB      94              0.0000000000
     12522        94  POPC      C28           -29.5018959308      -33.2485250682       -8.6627552209  MEMB      94              0.0000000000
     12523        94  POPC      H8R           -30.1388825400      -34.1582089578       -8.6950787195  MEMB      94              0.0000000000
     12524        94  POPC      H8S           -29.8993485210      -32.5343956084       -7.9101787448  MEMB      94              0.0000000000
     12525        94  POPC      C29           -28.1058909702      -33.7992880301       -8.4904290667  MEMB      94              0.0000000000
     12526        94  POPC      H91           -27.6837743233      -34.5074765205       -9.2186375659  MEMB      94              0.0000000000
     12527        94  POPC      C210          -27.2690324601      -33.4869793342       -7.4888563292  MEMB      94              0.0000000000
     12528        94  POPC      H101          -26.2301998516      -33.8432563426       -7.5512559096  MEMB      94              0.0000000000
     12529        94  POPC      C211          -27.5901127121      -32.5940962540       -6.2768485807  MEMB      94              0.0000000000
     12530        94  POPC      H11R          -28.5464586180      -32.9495599535       -5.8371111315  MEMB      94              0.0000000000
     12531        94  POPC      H11S          -27.7342747748      -31.5539834220       -6.6397586814  MEMB      94              0.0000000000
     12532        94  POPC      C212          -26.3896616529      -32.7055886493       -5.2550917013  MEMB      94              0.0000000000
     12533        94  POPC      H12R          -25.4211337998      -32.7680612647       -5.7958058053  MEMB      94              0.0000000000
     12534        94  POPC      H12S          -26.3857134461      -33.7513655683       -4.8800497988  MEMB      94              0.0000000000
     12535        94  POPC      C213          -26.3774286715      -31.7348645126       -4.0770416662  MEMB      94              0.0000000000
     12536        94  POPC      H13R          -27.4405510379      -31.5864088024       -3.7905930057  MEMB      94              0.0000000000
     12537        94  POPC      H13S          -25.8563179980      -30.8015717613       -4.3799105209  MEMB      94              0.0000000000
     12538        94  POPC      C214          -25.6552180138      -32.2906330527       -2.8512940801  MEMB      94              0.0000000000
     12539        94  POPC      H14R          -24.6218902604      -32.6693700849       -3.0033239928  MEMB      94              0.0000000000
     12540        94  POPC      H14S          -26.2882981001      -33.1543804092       -2.5555374195  MEMB      94              0.0000000000
     12541        94  POPC      C215          -25.4468498564      -31.4687094644       -1.6167655536  MEMB      94              0.0000000000
     12542        94  POPC      H15R          -26.3787648632      -31.5310157948       -1.0151229385  MEMB      94              0.0000000000
     12543        94  POPC      H15S          -25.1634157605      -30.4295675681       -1.8891063638  MEMB      94              0.0000000000
     12544        94  POPC      C216          -24.4141347999      -32.0112038665       -0.6347708661  MEMB      94              0.0000000000
     12545        94  POPC      H16R          -23.4281130695      -31.8184337512       -1.1090302860  MEMB      94              0.0000000000
     12546        94  POPC      H16S          -24.4866939959      -33.1163356208       -0.5467956798  MEMB      94              0.0000000000
     12547        94  POPC      C217          -24.5168056814      -31.3632717020        0.8092108014  MEMB      94              0.0000000000
     12548        94  POPC      H17R          -23.9469205043      -31.9003387881        1.5973178360  MEMB      94              0.0000000000
     12549        94  POPC      H17S          -25.5839594319      -31.5101988906        1.0810862886  MEMB      94              0.0000000000
     12550        94  POPC      C218          -24.1377044965      -29.8919064968        0.8623853974  MEMB      94              0.0000000000
     12551        94  POPC      H18R          -24.0447229748      -29.7031696310        1.9532803985  MEMB      94              0.0000000000
     12552        94  POPC      H18S          -24.9806257498      -29.3695058666        0.3614824260  MEMB      94              0.0000000000
     12553        94  POPC      H18T          -23.1203891431      -29.8118801097        0.4230833328  MEMB      94              0.0000000000
     12554        94  POPC      C33           -26.1724166602      -25.6291217711      -13.0385042448  MEMB      94              0.0000000000
     12555        94  POPC      H3X           -26.4653973421      -26.5249142458      -13.6267551919  MEMB      94              0.0000000000
     12556        94  POPC      H3Y           -26.8659392482      -24.9095200010      -13.5238086072  MEMB      94              0.0000000000
     12557        94  POPC      C34           -26.5266615420      -25.7636829059      -11.5483169806  MEMB      94              0.0000000000
     12558        94  POPC      H4X           -26.4089807339      -24.8011901661      -11.0060251020  MEMB      94              0.0000000000
     12559        94  POPC      H4Y           -25.8413129736      -26.5054649275      -11.0853072275  MEMB      94              0.0000000000
     12560        94  POPC      C35           -28.0529919280      -26.1290899241      -11.2556588024  MEMB      94              0.0000000000
     12561        94  POPC      H5X           -28.4238527277      -27.0213414546      -11.8039928904  MEMB      94              0.0000000000
     12562        94  POPC      H5Y           -28.7061832645      -25.2703122085      -11.5205419326  MEMB      94              0.0000000000
     12563        94  POPC      C36           -28.3470195382      -26.5398122612       -9.7988512116  MEMB      94              0.0000000000
     12564        94  POPC      H6X           -29.4392563713      -26.4955823259       -9.6003992079  MEMB      94              0.0000000000
     12565        94  POPC      H6Y           -27.9426025874      -25.7915194787       -9.0841305285  MEMB      94              0.0000000000
     12566        94  POPC      C37           -27.7543754099      -27.8592774818       -9.3590279559  MEMB      94              0.0000000000
     12567        94  POPC      H7X           -26.6600035233      -27.7049608223       -9.4724188583  MEMB      94              0.0000000000
     12568        94  POPC      H7Y           -28.1250686373      -28.6354330524      -10.0622279036  MEMB      94              0.0000000000
     12569        94  POPC      C38           -28.1026579813      -28.2631398972       -7.8984463340  MEMB      94              0.0000000000
     12570        94  POPC      H8X           -27.6005740864      -29.1793918242       -7.5206688541  MEMB      94              0.0000000000
     12571        94  POPC      H8Y           -29.1809200368      -28.5308232857       -7.9026320392  MEMB      94              0.0000000000
     12572        94  POPC      C39           -27.9014332680      -27.1676454264       -6.8322362677  MEMB      94              0.0000000000
     12573        94  POPC      H9X           -28.8166889508      -26.5386191166       -6.8631218708  MEMB      94              0.0000000000
     12574        94  POPC      H9Y           -26.9389031847      -26.6209211915       -6.9268375610  MEMB      94              0.0000000000
     12575        94  POPC      C310          -27.9728025500      -27.7859407727       -5.4109335907  MEMB      94              0.0000000000
     12576        94  POPC      H10X          -27.1824361614      -28.5661134725       -5.4421210302  MEMB      94              0.0000000000
     12577        94  POPC      H10Y          -28.9440578984      -28.3145036110       -5.3032048658  MEMB      94              0.0000000000
     12578        94  POPC      C311          -27.6531408938      -26.6742525067       -4.3403797457  MEMB      94              0.0000000000
     12579        94  POPC      H11X          -28.2255728155      -25.7695916636       -4.6374172792  MEMB      94              0.0000000000
     12580        94  POPC      H11Y          -26.5960106843      -26.3658766718       -4.1930673561  MEMB      94              0.0000000000
     12581        94  POPC      C312          -28.3061098771      -26.9213152689       -2.9986170115  MEMB      94              0.0000000000
     12582        94  POPC      H12X          -28.0892790531      -27.8886942799       -2.4971354094  MEMB      94              0.0000000000
     12583        94  POPC      H12Y          -29.3675777773      -27.0369044817       -3.3056123525  MEMB      94              0.0000000000
     12584        94  POPC      C313          -28.1580692282      -25.8079223389       -1.9341979439  MEMB      94              0.0000000000
     12585        94  POPC      H13X          -28.6443774409      -25.9858451895       -0.9512589323  MEMB      94              0.0000000000
     12586        94  POPC      H13Y          -28.7153090280      -24.9492574793       -2.3660531472  MEMB      94              0.0000000000
     12587        94  POPC      C314          -26.7479215118      -25.3797235584       -1.6525366315  MEMB      94              0.0000000000
     12588        94  POPC      H14X          -26.8127616072      -24.5307714994       -0.9388159235  MEMB      94              0.0000000000
     12589        94  POPC      H14Y          -26.3615655359      -25.0344052481       -2.6352901715  MEMB      94              0.0000000000
     12590        94  POPC      C315          -25.8033148906      -26.4855113006       -1.2241287074  MEMB      94              0.0000000000
     12591        94  POPC      H15X          -25.5644108288      -27.2752307768       -1.9681630259  MEMB      94              0.0000000000
     12592        94  POPC      H15Y          -26.4048932688      -27.1029081507       -0.5232384248  MEMB      94              0.0000000000
     12593        94  POPC      C316          -24.5562772761      -26.0619313568       -0.5118527684  MEMB      94              0.0000000000
     12594        94  POPC      H16X          -23.8412206245      -26.8665033245       -0.2367522768  MEMB      94              0.0000000000
     12595        94  POPC      H16Y          -24.7819234446      -25.4738734066        0.4033482119  MEMB      94              0.0000000000
     12596        94  POPC      H16Z          -24.1342518661      -25.2519499594       -1.1444234948  MEMB      94              0.0000000000
