PSF EXT CMAP XPLOR

         3 !NTITLE
* GENERATED BY CHARMM-GUI (HTTP://WWW.CHARMM-GUI.ORG) V3.7 ON DEC, 01. 2025. JOB
* READ PDB, MANIPULATE STRUCTURE IF NEEDED, AND GENERATE TOPOLOGY FILE          
*  DATE:    12/ 1/25      7:59:13      CREATED BY USER: charmm-gui              

       872 !NATOM
         1 PROA     1        GLY      N        NH3     -0.300000       14.0070           0
         2 PROA     1        GLY      HT1      HC       0.330000       1.00800           0
         3 PROA     1        GLY      HT2      HC       0.330000       1.00800           0
         4 PROA     1        GLY      HT3      HC       0.330000       1.00800           0
         5 PROA     1        GLY      CA       CT2      0.130000       12.0110           0
         6 PROA     1        GLY      HA1      HB2      0.900000E-01   1.00800           0
         7 PROA     1        GLY      HA2      HB2      0.900000E-01   1.00800           0
         8 PROA     1        GLY      C        C        0.510000       12.0110           0
         9 PROA     1        GLY      O        O       -0.510000       15.9994           0
        10 PROA     2        ILE      N        NH1     -0.470000       14.0070           0
        11 PROA     2        ILE      HN       H        0.310000       1.00800           0
        12 PROA     2        ILE      CA       CT1      0.700000E-01   12.0110           0
        13 PROA     2        ILE      HA       HB1      0.900000E-01   1.00800           0
        14 PROA     2        ILE      CB       CT1     -0.900000E-01   12.0110           0
        15 PROA     2        ILE      HB       HA1      0.900000E-01   1.00800           0
        16 PROA     2        ILE      CG2      CT3     -0.270000       12.0110           0
        17 PROA     2        ILE      HG21     HA3      0.900000E-01   1.00800           0
        18 PROA     2        ILE      HG22     HA3      0.900000E-01   1.00800           0
        19 PROA     2        ILE      HG23     HA3      0.900000E-01   1.00800           0
        20 PROA     2        ILE      CG1      CT2     -0.180000       12.0110           0
        21 PROA     2        ILE      HG11     HA2      0.900000E-01   1.00800           0
        22 PROA     2        ILE      HG12     HA2      0.900000E-01   1.00800           0
        23 PROA     2        ILE      CD       CT3     -0.270000       12.0110           0
        24 PROA     2        ILE      HD1      HA3      0.900000E-01   1.00800           0
        25 PROA     2        ILE      HD2      HA3      0.900000E-01   1.00800           0
        26 PROA     2        ILE      HD3      HA3      0.900000E-01   1.00800           0
        27 PROA     2        ILE      C        C        0.510000       12.0110           0
        28 PROA     2        ILE      O        O       -0.510000       15.9994           0
        29 PROA     3        GLY      N        NH1     -0.470000       14.0070           0
        30 PROA     3        GLY      HN       H        0.310000       1.00800           0
        31 PROA     3        GLY      CA       CT2     -0.200000E-01   12.0110           0
        32 PROA     3        GLY      HA1      HB2      0.900000E-01   1.00800           0
        33 PROA     3        GLY      HA2      HB2      0.900000E-01   1.00800           0
        34 PROA     3        GLY      C        C        0.510000       12.0110           0
        35 PROA     3        GLY      O        O       -0.510000       15.9994           0
        36 PROA     4        ALA      N        NH1     -0.470000       14.0070           0
        37 PROA     4        ALA      HN       H        0.310000       1.00800           0
        38 PROA     4        ALA      CA       CT1      0.700000E-01   12.0110           0
        39 PROA     4        ALA      HA       HB1      0.900000E-01   1.00800           0
        40 PROA     4        ALA      CB       CT3     -0.270000       12.0110           0
        41 PROA     4        ALA      HB1      HA3      0.900000E-01   1.00800           0
        42 PROA     4        ALA      HB2      HA3      0.900000E-01   1.00800           0
        43 PROA     4        ALA      HB3      HA3      0.900000E-01   1.00800           0
        44 PROA     4        ALA      C        C        0.510000       12.0110           0
        45 PROA     4        ALA      O        O       -0.510000       15.9994           0
        46 PROA     5        VAL      N        NH1     -0.470000       14.0070           0
        47 PROA     5        VAL      HN       H        0.310000       1.00800           0
        48 PROA     5        VAL      CA       CT1      0.700000E-01   12.0110           0
        49 PROA     5        VAL      HA       HB1      0.900000E-01   1.00800           0
        50 PROA     5        VAL      CB       CT1     -0.900000E-01   12.0110           0
        51 PROA     5        VAL      HB       HA1      0.900000E-01   1.00800           0
        52 PROA     5        VAL      CG1      CT3     -0.270000       12.0110           0
        53 PROA     5        VAL      HG11     HA3      0.900000E-01   1.00800           0
        54 PROA     5        VAL      HG12     HA3      0.900000E-01   1.00800           0
        55 PROA     5        VAL      HG13     HA3      0.900000E-01   1.00800           0
        56 PROA     5        VAL      CG2      CT3     -0.270000       12.0110           0
        57 PROA     5        VAL      HG21     HA3      0.900000E-01   1.00800           0
        58 PROA     5        VAL      HG22     HA3      0.900000E-01   1.00800           0
        59 PROA     5        VAL      HG23     HA3      0.900000E-01   1.00800           0
        60 PROA     5        VAL      C        C        0.510000       12.0110           0
        61 PROA     5        VAL      O        O       -0.510000       15.9994           0
        62 PROA     6        LEU      N        NH1     -0.470000       14.0070           0
        63 PROA     6        LEU      HN       H        0.310000       1.00800           0
        64 PROA     6        LEU      CA       CT1      0.700000E-01   12.0110           0
        65 PROA     6        LEU      HA       HB1      0.900000E-01   1.00800           0
        66 PROA     6        LEU      CB       CT2     -0.180000       12.0110           0
        67 PROA     6        LEU      HB1      HA2      0.900000E-01   1.00800           0
        68 PROA     6        LEU      HB2      HA2      0.900000E-01   1.00800           0
        69 PROA     6        LEU      CG       CT1     -0.900000E-01   12.0110           0
        70 PROA     6        LEU      HG       HA1      0.900000E-01   1.00800           0
        71 PROA     6        LEU      CD1      CT3     -0.270000       12.0110           0
        72 PROA     6        LEU      HD11     HA3      0.900000E-01   1.00800           0
        73 PROA     6        LEU      HD12     HA3      0.900000E-01   1.00800           0
        74 PROA     6        LEU      HD13     HA3      0.900000E-01   1.00800           0
        75 PROA     6        LEU      CD2      CT3     -0.270000       12.0110           0
        76 PROA     6        LEU      HD21     HA3      0.900000E-01   1.00800           0
        77 PROA     6        LEU      HD22     HA3      0.900000E-01   1.00800           0
        78 PROA     6        LEU      HD23     HA3      0.900000E-01   1.00800           0
        79 PROA     6        LEU      C        C        0.510000       12.0110           0
        80 PROA     6        LEU      O        O       -0.510000       15.9994           0
        81 PROA     7        LYS      N        NH1     -0.470000       14.0070           0
        82 PROA     7        LYS      HN       H        0.310000       1.00800           0
        83 PROA     7        LYS      CA       CT1      0.700000E-01   12.0110           0
        84 PROA     7        LYS      HA       HB1      0.900000E-01   1.00800           0
        85 PROA     7        LYS      CB       CT2     -0.180000       12.0110           0
        86 PROA     7        LYS      HB1      HA2      0.900000E-01   1.00800           0
        87 PROA     7        LYS      HB2      HA2      0.900000E-01   1.00800           0
        88 PROA     7        LYS      CG       CT2     -0.180000       12.0110           0
        89 PROA     7        LYS      HG1      HA2      0.900000E-01   1.00800           0
        90 PROA     7        LYS      HG2      HA2      0.900000E-01   1.00800           0
        91 PROA     7        LYS      CD       CT2     -0.180000       12.0110           0
        92 PROA     7        LYS      HD1      HA2      0.900000E-01   1.00800           0
        93 PROA     7        LYS      HD2      HA2      0.900000E-01   1.00800           0
        94 PROA     7        LYS      CE       CT2      0.210000       12.0110           0
        95 PROA     7        LYS      HE1      HA2      0.500000E-01   1.00800           0
        96 PROA     7        LYS      HE2      HA2      0.500000E-01   1.00800           0
        97 PROA     7        LYS      NZ       NH3     -0.300000       14.0070           0
        98 PROA     7        LYS      HZ1      HC       0.330000       1.00800           0
        99 PROA     7        LYS      HZ2      HC       0.330000       1.00800           0
       100 PROA     7        LYS      HZ3      HC       0.330000       1.00800           0
       101 PROA     7        LYS      C        C        0.510000       12.0110           0
       102 PROA     7        LYS      O        O       -0.510000       15.9994           0
       103 PROA     8        VAL      N        NH1     -0.470000       14.0070           0
       104 PROA     8        VAL      HN       H        0.310000       1.00800           0
       105 PROA     8        VAL      CA       CT1      0.700000E-01   12.0110           0
       106 PROA     8        VAL      HA       HB1      0.900000E-01   1.00800           0
       107 PROA     8        VAL      CB       CT1     -0.900000E-01   12.0110           0
       108 PROA     8        VAL      HB       HA1      0.900000E-01   1.00800           0
       109 PROA     8        VAL      CG1      CT3     -0.270000       12.0110           0
       110 PROA     8        VAL      HG11     HA3      0.900000E-01   1.00800           0
       111 PROA     8        VAL      HG12     HA3      0.900000E-01   1.00800           0
       112 PROA     8        VAL      HG13     HA3      0.900000E-01   1.00800           0
       113 PROA     8        VAL      CG2      CT3     -0.270000       12.0110           0
       114 PROA     8        VAL      HG21     HA3      0.900000E-01   1.00800           0
       115 PROA     8        VAL      HG22     HA3      0.900000E-01   1.00800           0
       116 PROA     8        VAL      HG23     HA3      0.900000E-01   1.00800           0
       117 PROA     8        VAL      C        C        0.510000       12.0110           0
       118 PROA     8        VAL      O        O       -0.510000       15.9994           0
       119 PROA     9        LEU      N        NH1     -0.470000       14.0070           0
       120 PROA     9        LEU      HN       H        0.310000       1.00800           0
       121 PROA     9        LEU      CA       CT1      0.700000E-01   12.0110           0
       122 PROA     9        LEU      HA       HB1      0.900000E-01   1.00800           0
       123 PROA     9        LEU      CB       CT2     -0.180000       12.0110           0
       124 PROA     9        LEU      HB1      HA2      0.900000E-01   1.00800           0
       125 PROA     9        LEU      HB2      HA2      0.900000E-01   1.00800           0
       126 PROA     9        LEU      CG       CT1     -0.900000E-01   12.0110           0
       127 PROA     9        LEU      HG       HA1      0.900000E-01   1.00800           0
       128 PROA     9        LEU      CD1      CT3     -0.270000       12.0110           0
       129 PROA     9        LEU      HD11     HA3      0.900000E-01   1.00800           0
       130 PROA     9        LEU      HD12     HA3      0.900000E-01   1.00800           0
       131 PROA     9        LEU      HD13     HA3      0.900000E-01   1.00800           0
       132 PROA     9        LEU      CD2      CT3     -0.270000       12.0110           0
       133 PROA     9        LEU      HD21     HA3      0.900000E-01   1.00800           0
       134 PROA     9        LEU      HD22     HA3      0.900000E-01   1.00800           0
       135 PROA     9        LEU      HD23     HA3      0.900000E-01   1.00800           0
       136 PROA     9        LEU      C        C        0.510000       12.0110           0
       137 PROA     9        LEU      O        O       -0.510000       15.9994           0
       138 PROA     10       THR      N        NH1     -0.470000       14.0070           0
       139 PROA     10       THR      HN       H        0.310000       1.00800           0
       140 PROA     10       THR      CA       CT1      0.700000E-01   12.0110           0
       141 PROA     10       THR      HA       HB1      0.900000E-01   1.00800           0
       142 PROA     10       THR      CB       CT1      0.140000       12.0110           0
       143 PROA     10       THR      HB       HA1      0.900000E-01   1.00800           0
       144 PROA     10       THR      OG1      OH1     -0.660000       15.9994           0
       145 PROA     10       THR      HG1      H        0.430000       1.00800           0
       146 PROA     10       THR      CG2      CT3     -0.270000       12.0110           0
       147 PROA     10       THR      HG21     HA3      0.900000E-01   1.00800           0
       148 PROA     10       THR      HG22     HA3      0.900000E-01   1.00800           0
       149 PROA     10       THR      HG23     HA3      0.900000E-01   1.00800           0
       150 PROA     10       THR      C        C        0.510000       12.0110           0
       151 PROA     10       THR      O        O       -0.510000       15.9994           0
       152 PROA     11       THR      N        NH1     -0.470000       14.0070           0
       153 PROA     11       THR      HN       H        0.310000       1.00800           0
       154 PROA     11       THR      CA       CT1      0.700000E-01   12.0110           0
       155 PROA     11       THR      HA       HB1      0.900000E-01   1.00800           0
       156 PROA     11       THR      CB       CT1      0.140000       12.0110           0
       157 PROA     11       THR      HB       HA1      0.900000E-01   1.00800           0
       158 PROA     11       THR      OG1      OH1     -0.660000       15.9994           0
       159 PROA     11       THR      HG1      H        0.430000       1.00800           0
       160 PROA     11       THR      CG2      CT3     -0.270000       12.0110           0
       161 PROA     11       THR      HG21     HA3      0.900000E-01   1.00800           0
       162 PROA     11       THR      HG22     HA3      0.900000E-01   1.00800           0
       163 PROA     11       THR      HG23     HA3      0.900000E-01   1.00800           0
       164 PROA     11       THR      C        C        0.510000       12.0110           0
       165 PROA     11       THR      O        O       -0.510000       15.9994           0
       166 PROA     12       GLY      N        NH1     -0.470000       14.0070           0
       167 PROA     12       GLY      HN       H        0.310000       1.00800           0
       168 PROA     12       GLY      CA       CT2     -0.200000E-01   12.0110           0
       169 PROA     12       GLY      HA1      HB2      0.900000E-01   1.00800           0
       170 PROA     12       GLY      HA2      HB2      0.900000E-01   1.00800           0
       171 PROA     12       GLY      C        C        0.510000       12.0110           0
       172 PROA     12       GLY      O        O       -0.510000       15.9994           0
       173 PROA     13       LEU      N        NH1     -0.470000       14.0070           0
       174 PROA     13       LEU      HN       H        0.310000       1.00800           0
       175 PROA     13       LEU      CA       CT1      0.700000E-01   12.0110           0
       176 PROA     13       LEU      HA       HB1      0.900000E-01   1.00800           0
       177 PROA     13       LEU      CB       CT2     -0.180000       12.0110           0
       178 PROA     13       LEU      HB1      HA2      0.900000E-01   1.00800           0
       179 PROA     13       LEU      HB2      HA2      0.900000E-01   1.00800           0
       180 PROA     13       LEU      CG       CT1     -0.900000E-01   12.0110           0
       181 PROA     13       LEU      HG       HA1      0.900000E-01   1.00800           0
       182 PROA     13       LEU      CD1      CT3     -0.270000       12.0110           0
       183 PROA     13       LEU      HD11     HA3      0.900000E-01   1.00800           0
       184 PROA     13       LEU      HD12     HA3      0.900000E-01   1.00800           0
       185 PROA     13       LEU      HD13     HA3      0.900000E-01   1.00800           0
       186 PROA     13       LEU      CD2      CT3     -0.270000       12.0110           0
       187 PROA     13       LEU      HD21     HA3      0.900000E-01   1.00800           0
       188 PROA     13       LEU      HD22     HA3      0.900000E-01   1.00800           0
       189 PROA     13       LEU      HD23     HA3      0.900000E-01   1.00800           0
       190 PROA     13       LEU      C        C        0.510000       12.0110           0
       191 PROA     13       LEU      O        O       -0.510000       15.9994           0
       192 PROA     14       PRO      N        N       -0.290000       14.0070           0
       193 PROA     14       PRO      CD       CP3       0.00000       12.0110           0
       194 PROA     14       PRO      HD1      HA2      0.900000E-01   1.00800           0
       195 PROA     14       PRO      HD2      HA2      0.900000E-01   1.00800           0
       196 PROA     14       PRO      CA       CP1      0.200000E-01   12.0110           0
       197 PROA     14       PRO      HA       HB1      0.900000E-01   1.00800           0
       198 PROA     14       PRO      CB       CP2     -0.180000       12.0110           0
       199 PROA     14       PRO      HB1      HA2      0.900000E-01   1.00800           0
       200 PROA     14       PRO      HB2      HA2      0.900000E-01   1.00800           0
       201 PROA     14       PRO      CG       CP2     -0.180000       12.0110           0
       202 PROA     14       PRO      HG1      HA2      0.900000E-01   1.00800           0
       203 PROA     14       PRO      HG2      HA2      0.900000E-01   1.00800           0
       204 PROA     14       PRO      C        C        0.510000       12.0110           0
       205 PROA     14       PRO      O        O       -0.510000       15.9994           0
       206 PROA     15       ALA      N        NH1     -0.470000       14.0070           0
       207 PROA     15       ALA      HN       H        0.310000       1.00800           0
       208 PROA     15       ALA      CA       CT1      0.700000E-01   12.0110           0
       209 PROA     15       ALA      HA       HB1      0.900000E-01   1.00800           0
       210 PROA     15       ALA      CB       CT3     -0.270000       12.0110           0
       211 PROA     15       ALA      HB1      HA3      0.900000E-01   1.00800           0
       212 PROA     15       ALA      HB2      HA3      0.900000E-01   1.00800           0
       213 PROA     15       ALA      HB3      HA3      0.900000E-01   1.00800           0
       214 PROA     15       ALA      C        C        0.510000       12.0110           0
       215 PROA     15       ALA      O        O       -0.510000       15.9994           0
       216 PROA     16       LEU      N        NH1     -0.470000       14.0070           0
       217 PROA     16       LEU      HN       H        0.310000       1.00800           0
       218 PROA     16       LEU      CA       CT1      0.700000E-01   12.0110           0
       219 PROA     16       LEU      HA       HB1      0.900000E-01   1.00800           0
       220 PROA     16       LEU      CB       CT2     -0.180000       12.0110           0
       221 PROA     16       LEU      HB1      HA2      0.900000E-01   1.00800           0
       222 PROA     16       LEU      HB2      HA2      0.900000E-01   1.00800           0
       223 PROA     16       LEU      CG       CT1     -0.900000E-01   12.0110           0
       224 PROA     16       LEU      HG       HA1      0.900000E-01   1.00800           0
       225 PROA     16       LEU      CD1      CT3     -0.270000       12.0110           0
       226 PROA     16       LEU      HD11     HA3      0.900000E-01   1.00800           0
       227 PROA     16       LEU      HD12     HA3      0.900000E-01   1.00800           0
       228 PROA     16       LEU      HD13     HA3      0.900000E-01   1.00800           0
       229 PROA     16       LEU      CD2      CT3     -0.270000       12.0110           0
       230 PROA     16       LEU      HD21     HA3      0.900000E-01   1.00800           0
       231 PROA     16       LEU      HD22     HA3      0.900000E-01   1.00800           0
       232 PROA     16       LEU      HD23     HA3      0.900000E-01   1.00800           0
       233 PROA     16       LEU      C        C        0.510000       12.0110           0
       234 PROA     16       LEU      O        O       -0.510000       15.9994           0
       235 PROA     17       ILE      N        NH1     -0.470000       14.0070           0
       236 PROA     17       ILE      HN       H        0.310000       1.00800           0
       237 PROA     17       ILE      CA       CT1      0.700000E-01   12.0110           0
       238 PROA     17       ILE      HA       HB1      0.900000E-01   1.00800           0
       239 PROA     17       ILE      CB       CT1     -0.900000E-01   12.0110           0
       240 PROA     17       ILE      HB       HA1      0.900000E-01   1.00800           0
       241 PROA     17       ILE      CG2      CT3     -0.270000       12.0110           0
       242 PROA     17       ILE      HG21     HA3      0.900000E-01   1.00800           0
       243 PROA     17       ILE      HG22     HA3      0.900000E-01   1.00800           0
       244 PROA     17       ILE      HG23     HA3      0.900000E-01   1.00800           0
       245 PROA     17       ILE      CG1      CT2     -0.180000       12.0110           0
       246 PROA     17       ILE      HG11     HA2      0.900000E-01   1.00800           0
       247 PROA     17       ILE      HG12     HA2      0.900000E-01   1.00800           0
       248 PROA     17       ILE      CD       CT3     -0.270000       12.0110           0
       249 PROA     17       ILE      HD1      HA3      0.900000E-01   1.00800           0
       250 PROA     17       ILE      HD2      HA3      0.900000E-01   1.00800           0
       251 PROA     17       ILE      HD3      HA3      0.900000E-01   1.00800           0
       252 PROA     17       ILE      C        C        0.510000       12.0110           0
       253 PROA     17       ILE      O        O       -0.510000       15.9994           0
       254 PROA     18       SER      N        NH1     -0.470000       14.0070           0
       255 PROA     18       SER      HN       H        0.310000       1.00800           0
       256 PROA     18       SER      CA       CT1      0.700000E-01   12.0110           0
       257 PROA     18       SER      HA       HB1      0.900000E-01   1.00800           0
       258 PROA     18       SER      CB       CT2      0.500000E-01   12.0110           0
       259 PROA     18       SER      HB1      HA2      0.900000E-01   1.00800           0
       260 PROA     18       SER      HB2      HA2      0.900000E-01   1.00800           0
       261 PROA     18       SER      OG       OH1     -0.660000       15.9994           0
       262 PROA     18       SER      HG1      H        0.430000       1.00800           0
       263 PROA     18       SER      C        C        0.510000       12.0110           0
       264 PROA     18       SER      O        O       -0.510000       15.9994           0
       265 PROA     19       TRP      N        NH1     -0.470000       14.0070           0
       266 PROA     19       TRP      HN       H        0.310000       1.00800           0
       267 PROA     19       TRP      CA       CT1      0.700000E-01   12.0110           0
       268 PROA     19       TRP      HA       HB1      0.900000E-01   1.00800           0
       269 PROA     19       TRP      CB       CT2     -0.180000       12.0110           0
       270 PROA     19       TRP      HB1      HA2      0.900000E-01   1.00800           0
       271 PROA     19       TRP      HB2      HA2      0.900000E-01   1.00800           0
       272 PROA     19       TRP      CG       CY      -0.300000E-01   12.0110           0
       273 PROA     19       TRP      CD1      CA      -0.150000       12.0110           0
       274 PROA     19       TRP      HD1      HP       0.220000       1.00800           0
       275 PROA     19       TRP      NE1      NY      -0.510000       14.0070           0
       276 PROA     19       TRP      HE1      H        0.370000       1.00800           0
       277 PROA     19       TRP      CE2      CPT      0.240000       12.0110           0
       278 PROA     19       TRP      CD2      CPT      0.110000       12.0110           0
       279 PROA     19       TRP      CE3      CAI     -0.250000       12.0110           0
       280 PROA     19       TRP      HE3      HP       0.170000       1.00800           0
       281 PROA     19       TRP      CZ3      CA      -0.200000       12.0110           0
       282 PROA     19       TRP      HZ3      HP       0.140000       1.00800           0
       283 PROA     19       TRP      CZ2      CAI     -0.270000       12.0110           0
       284 PROA     19       TRP      HZ2      HP       0.160000       1.00800           0
       285 PROA     19       TRP      CH2      CA      -0.140000       12.0110           0
       286 PROA     19       TRP      HH2      HP       0.140000       1.00800           0
       287 PROA     19       TRP      C        C        0.510000       12.0110           0
       288 PROA     19       TRP      O        O       -0.510000       15.9994           0
       289 PROA     20       ILE      N        NH1     -0.470000       14.0070           0
       290 PROA     20       ILE      HN       H        0.310000       1.00800           0
       291 PROA     20       ILE      CA       CT1      0.700000E-01   12.0110           0
       292 PROA     20       ILE      HA       HB1      0.900000E-01   1.00800           0
       293 PROA     20       ILE      CB       CT1     -0.900000E-01   12.0110           0
       294 PROA     20       ILE      HB       HA1      0.900000E-01   1.00800           0
       295 PROA     20       ILE      CG2      CT3     -0.270000       12.0110           0
       296 PROA     20       ILE      HG21     HA3      0.900000E-01   1.00800           0
       297 PROA     20       ILE      HG22     HA3      0.900000E-01   1.00800           0
       298 PROA     20       ILE      HG23     HA3      0.900000E-01   1.00800           0
       299 PROA     20       ILE      CG1      CT2     -0.180000       12.0110           0
       300 PROA     20       ILE      HG11     HA2      0.900000E-01   1.00800           0
       301 PROA     20       ILE      HG12     HA2      0.900000E-01   1.00800           0
       302 PROA     20       ILE      CD       CT3     -0.270000       12.0110           0
       303 PROA     20       ILE      HD1      HA3      0.900000E-01   1.00800           0
       304 PROA     20       ILE      HD2      HA3      0.900000E-01   1.00800           0
       305 PROA     20       ILE      HD3      HA3      0.900000E-01   1.00800           0
       306 PROA     20       ILE      C        C        0.510000       12.0110           0
       307 PROA     20       ILE      O        O       -0.510000       15.9994           0
       308 PROA     21       LYS      N        NH1     -0.470000       14.0070           0
       309 PROA     21       LYS      HN       H        0.310000       1.00800           0
       310 PROA     21       LYS      CA       CT1      0.700000E-01   12.0110           0
       311 PROA     21       LYS      HA       HB1      0.900000E-01   1.00800           0
       312 PROA     21       LYS      CB       CT2     -0.180000       12.0110           0
       313 PROA     21       LYS      HB1      HA2      0.900000E-01   1.00800           0
       314 PROA     21       LYS      HB2      HA2      0.900000E-01   1.00800           0
       315 PROA     21       LYS      CG       CT2     -0.180000       12.0110           0
       316 PROA     21       LYS      HG1      HA2      0.900000E-01   1.00800           0
       317 PROA     21       LYS      HG2      HA2      0.900000E-01   1.00800           0
       318 PROA     21       LYS      CD       CT2     -0.180000       12.0110           0
       319 PROA     21       LYS      HD1      HA2      0.900000E-01   1.00800           0
       320 PROA     21       LYS      HD2      HA2      0.900000E-01   1.00800           0
       321 PROA     21       LYS      CE       CT2      0.210000       12.0110           0
       322 PROA     21       LYS      HE1      HA2      0.500000E-01   1.00800           0
       323 PROA     21       LYS      HE2      HA2      0.500000E-01   1.00800           0
       324 PROA     21       LYS      NZ       NH3     -0.300000       14.0070           0
       325 PROA     21       LYS      HZ1      HC       0.330000       1.00800           0
       326 PROA     21       LYS      HZ2      HC       0.330000       1.00800           0
       327 PROA     21       LYS      HZ3      HC       0.330000       1.00800           0
       328 PROA     21       LYS      C        C        0.510000       12.0110           0
       329 PROA     21       LYS      O        O       -0.510000       15.9994           0
       330 PROA     22       ARG      N        NH1     -0.470000       14.0070           0
       331 PROA     22       ARG      HN       H        0.310000       1.00800           0
       332 PROA     22       ARG      CA       CT1      0.700000E-01   12.0110           0
       333 PROA     22       ARG      HA       HB1      0.900000E-01   1.00800           0
       334 PROA     22       ARG      CB       CT2     -0.180000       12.0110           0
       335 PROA     22       ARG      HB1      HA2      0.900000E-01   1.00800           0
       336 PROA     22       ARG      HB2      HA2      0.900000E-01   1.00800           0
       337 PROA     22       ARG      CG       CT2     -0.180000       12.0110           0
       338 PROA     22       ARG      HG1      HA2      0.900000E-01   1.00800           0
       339 PROA     22       ARG      HG2      HA2      0.900000E-01   1.00800           0
       340 PROA     22       ARG      CD       CT2      0.200000       12.0110           0
       341 PROA     22       ARG      HD1      HA2      0.900000E-01   1.00800           0
       342 PROA     22       ARG      HD2      HA2      0.900000E-01   1.00800           0
       343 PROA     22       ARG      NE       NC2     -0.700000       14.0070           0
       344 PROA     22       ARG      HE       HC       0.440000       1.00800           0
       345 PROA     22       ARG      CZ       C        0.640000       12.0110           0
       346 PROA     22       ARG      NH1      NC2     -0.800000       14.0070           0
       347 PROA     22       ARG      HH11     HC       0.460000       1.00800           0
       348 PROA     22       ARG      HH12     HC       0.460000       1.00800           0
       349 PROA     22       ARG      NH2      NC2     -0.800000       14.0070           0
       350 PROA     22       ARG      HH21     HC       0.460000       1.00800           0
       351 PROA     22       ARG      HH22     HC       0.460000       1.00800           0
       352 PROA     22       ARG      C        C        0.510000       12.0110           0
       353 PROA     22       ARG      O        O       -0.510000       15.9994           0
       354 PROA     23       LYS      N        NH1     -0.470000       14.0070           0
       355 PROA     23       LYS      HN       H        0.310000       1.00800           0
       356 PROA     23       LYS      CA       CT1      0.700000E-01   12.0110           0
       357 PROA     23       LYS      HA       HB1      0.900000E-01   1.00800           0
       358 PROA     23       LYS      CB       CT2     -0.180000       12.0110           0
       359 PROA     23       LYS      HB1      HA2      0.900000E-01   1.00800           0
       360 PROA     23       LYS      HB2      HA2      0.900000E-01   1.00800           0
       361 PROA     23       LYS      CG       CT2     -0.180000       12.0110           0
       362 PROA     23       LYS      HG1      HA2      0.900000E-01   1.00800           0
       363 PROA     23       LYS      HG2      HA2      0.900000E-01   1.00800           0
       364 PROA     23       LYS      CD       CT2     -0.180000       12.0110           0
       365 PROA     23       LYS      HD1      HA2      0.900000E-01   1.00800           0
       366 PROA     23       LYS      HD2      HA2      0.900000E-01   1.00800           0
       367 PROA     23       LYS      CE       CT2      0.210000       12.0110           0
       368 PROA     23       LYS      HE1      HA2      0.500000E-01   1.00800           0
       369 PROA     23       LYS      HE2      HA2      0.500000E-01   1.00800           0
       370 PROA     23       LYS      NZ       NH3     -0.300000       14.0070           0
       371 PROA     23       LYS      HZ1      HC       0.330000       1.00800           0
       372 PROA     23       LYS      HZ2      HC       0.330000       1.00800           0
       373 PROA     23       LYS      HZ3      HC       0.330000       1.00800           0
       374 PROA     23       LYS      C        C        0.510000       12.0110           0
       375 PROA     23       LYS      O        O       -0.510000       15.9994           0
       376 PROA     24       ARG      N        NH1     -0.470000       14.0070           0
       377 PROA     24       ARG      HN       H        0.310000       1.00800           0
       378 PROA     24       ARG      CA       CT1      0.700000E-01   12.0110           0
       379 PROA     24       ARG      HA       HB1      0.900000E-01   1.00800           0
       380 PROA     24       ARG      CB       CT2     -0.180000       12.0110           0
       381 PROA     24       ARG      HB1      HA2      0.900000E-01   1.00800           0
       382 PROA     24       ARG      HB2      HA2      0.900000E-01   1.00800           0
       383 PROA     24       ARG      CG       CT2     -0.180000       12.0110           0
       384 PROA     24       ARG      HG1      HA2      0.900000E-01   1.00800           0
       385 PROA     24       ARG      HG2      HA2      0.900000E-01   1.00800           0
       386 PROA     24       ARG      CD       CT2      0.200000       12.0110           0
       387 PROA     24       ARG      HD1      HA2      0.900000E-01   1.00800           0
       388 PROA     24       ARG      HD2      HA2      0.900000E-01   1.00800           0
       389 PROA     24       ARG      NE       NC2     -0.700000       14.0070           0
       390 PROA     24       ARG      HE       HC       0.440000       1.00800           0
       391 PROA     24       ARG      CZ       C        0.640000       12.0110           0
       392 PROA     24       ARG      NH1      NC2     -0.800000       14.0070           0
       393 PROA     24       ARG      HH11     HC       0.460000       1.00800           0
       394 PROA     24       ARG      HH12     HC       0.460000       1.00800           0
       395 PROA     24       ARG      NH2      NC2     -0.800000       14.0070           0
       396 PROA     24       ARG      HH21     HC       0.460000       1.00800           0
       397 PROA     24       ARG      HH22     HC       0.460000       1.00800           0
       398 PROA     24       ARG      C        C        0.510000       12.0110           0
       399 PROA     24       ARG      O        O       -0.510000       15.9994           0
       400 PROA     25       GLN      N        NH1     -0.470000       14.0070           0
       401 PROA     25       GLN      HN       H        0.310000       1.00800           0
       402 PROA     25       GLN      CA       CT1      0.700000E-01   12.0110           0
       403 PROA     25       GLN      HA       HB1      0.900000E-01   1.00800           0
       404 PROA     25       GLN      CB       CT2     -0.180000       12.0110           0
       405 PROA     25       GLN      HB1      HA2      0.900000E-01   1.00800           0
       406 PROA     25       GLN      HB2      HA2      0.900000E-01   1.00800           0
       407 PROA     25       GLN      CG       CT2     -0.180000       12.0110           0
       408 PROA     25       GLN      HG1      HA2      0.900000E-01   1.00800           0
       409 PROA     25       GLN      HG2      HA2      0.900000E-01   1.00800           0
       410 PROA     25       GLN      CD       CC       0.550000       12.0110           0
       411 PROA     25       GLN      OE1      O       -0.550000       15.9994           0
       412 PROA     25       GLN      NE2      NH2     -0.620000       14.0070           0
       413 PROA     25       GLN      HE21     H        0.320000       1.00800           0
       414 PROA     25       GLN      HE22     H        0.300000       1.00800           0
       415 PROA     25       GLN      C        C        0.510000       12.0110           0
       416 PROA     25       GLN      O        O       -0.510000       15.9994           0
       417 PROA     26       GLN      N        NH1     -0.470000       14.0070           0
       418 PROA     26       GLN      HN       H        0.310000       1.00800           0
       419 PROA     26       GLN      CA       CT1      0.700000E-01   12.0110           0
       420 PROA     26       GLN      HA       HB1      0.900000E-01   1.00800           0
       421 PROA     26       GLN      CB       CT2     -0.180000       12.0110           0
       422 PROA     26       GLN      HB1      HA2      0.900000E-01   1.00800           0
       423 PROA     26       GLN      HB2      HA2      0.900000E-01   1.00800           0
       424 PROA     26       GLN      CG       CT2     -0.180000       12.0110           0
       425 PROA     26       GLN      HG1      HA2      0.900000E-01   1.00800           0
       426 PROA     26       GLN      HG2      HA2      0.900000E-01   1.00800           0
       427 PROA     26       GLN      CD       CC       0.550000       12.0110           0
       428 PROA     26       GLN      OE1      O       -0.550000       15.9994           0
       429 PROA     26       GLN      NE2      NH2     -0.620000       14.0070           0
       430 PROA     26       GLN      HE21     H        0.320000       1.00800           0
       431 PROA     26       GLN      HE22     H        0.300000       1.00800           0
       432 PROA     26       GLN      C        CC       0.550000       12.0110           0
       433 PROA     26       GLN      O        O       -0.550000       15.9994           0
       434 PROA     26       GLN      NT       NH2     -0.620000       14.0070           0
       435 PROA     26       GLN      HT1      H        0.320000       1.00800           0
       436 PROA     26       GLN      HT2      H        0.300000       1.00800           0
       437 P2PROA   1        GLY      N        NH3     -0.300000       14.0070           0
       438 P2PROA   1        GLY      HT1      HC       0.330000       1.00800           0
       439 P2PROA   1        GLY      HT2      HC       0.330000       1.00800           0
       440 P2PROA   1        GLY      HT3      HC       0.330000       1.00800           0
       441 P2PROA   1        GLY      CA       CT2      0.130000       12.0110           0
       442 P2PROA   1        GLY      HA1      HB2      0.900000E-01   1.00800           0
       443 P2PROA   1        GLY      HA2      HB2      0.900000E-01   1.00800           0
       444 P2PROA   1        GLY      C        C        0.510000       12.0110           0
       445 P2PROA   1        GLY      O        O       -0.510000       15.9994           0
       446 P2PROA   2        ILE      N        NH1     -0.470000       14.0070           0
       447 P2PROA   2        ILE      HN       H        0.310000       1.00800           0
       448 P2PROA   2        ILE      CA       CT1      0.700000E-01   12.0110           0
       449 P2PROA   2        ILE      HA       HB1      0.900000E-01   1.00800           0
       450 P2PROA   2        ILE      CB       CT1     -0.900000E-01   12.0110           0
       451 P2PROA   2        ILE      HB       HA1      0.900000E-01   1.00800           0
       452 P2PROA   2        ILE      CG2      CT3     -0.270000       12.0110           0
       453 P2PROA   2        ILE      HG21     HA3      0.900000E-01   1.00800           0
       454 P2PROA   2        ILE      HG22     HA3      0.900000E-01   1.00800           0
       455 P2PROA   2        ILE      HG23     HA3      0.900000E-01   1.00800           0
       456 P2PROA   2        ILE      CG1      CT2     -0.180000       12.0110           0
       457 P2PROA   2        ILE      HG11     HA2      0.900000E-01   1.00800           0
       458 P2PROA   2        ILE      HG12     HA2      0.900000E-01   1.00800           0
       459 P2PROA   2        ILE      CD       CT3     -0.270000       12.0110           0
       460 P2PROA   2        ILE      HD1      HA3      0.900000E-01   1.00800           0
       461 P2PROA   2        ILE      HD2      HA3      0.900000E-01   1.00800           0
       462 P2PROA   2        ILE      HD3      HA3      0.900000E-01   1.00800           0
       463 P2PROA   2        ILE      C        C        0.510000       12.0110           0
       464 P2PROA   2        ILE      O        O       -0.510000       15.9994           0
       465 P2PROA   3        GLY      N        NH1     -0.470000       14.0070           0
       466 P2PROA   3        GLY      HN       H        0.310000       1.00800           0
       467 P2PROA   3        GLY      CA       CT2     -0.200000E-01   12.0110           0
       468 P2PROA   3        GLY      HA1      HB2      0.900000E-01   1.00800           0
       469 P2PROA   3        GLY      HA2      HB2      0.900000E-01   1.00800           0
       470 P2PROA   3        GLY      C        C        0.510000       12.0110           0
       471 P2PROA   3        GLY      O        O       -0.510000       15.9994           0
       472 P2PROA   4        ALA      N        NH1     -0.470000       14.0070           0
       473 P2PROA   4        ALA      HN       H        0.310000       1.00800           0
       474 P2PROA   4        ALA      CA       CT1      0.700000E-01   12.0110           0
       475 P2PROA   4        ALA      HA       HB1      0.900000E-01   1.00800           0
       476 P2PROA   4        ALA      CB       CT3     -0.270000       12.0110           0
       477 P2PROA   4        ALA      HB1      HA3      0.900000E-01   1.00800           0
       478 P2PROA   4        ALA      HB2      HA3      0.900000E-01   1.00800           0
       479 P2PROA   4        ALA      HB3      HA3      0.900000E-01   1.00800           0
       480 P2PROA   4        ALA      C        C        0.510000       12.0110           0
       481 P2PROA   4        ALA      O        O       -0.510000       15.9994           0
       482 P2PROA   5        VAL      N        NH1     -0.470000       14.0070           0
       483 P2PROA   5        VAL      HN       H        0.310000       1.00800           0
       484 P2PROA   5        VAL      CA       CT1      0.700000E-01   12.0110           0
       485 P2PROA   5        VAL      HA       HB1      0.900000E-01   1.00800           0
       486 P2PROA   5        VAL      CB       CT1     -0.900000E-01   12.0110           0
       487 P2PROA   5        VAL      HB       HA1      0.900000E-01   1.00800           0
       488 P2PROA   5        VAL      CG1      CT3     -0.270000       12.0110           0
       489 P2PROA   5        VAL      HG11     HA3      0.900000E-01   1.00800           0
       490 P2PROA   5        VAL      HG12     HA3      0.900000E-01   1.00800           0
       491 P2PROA   5        VAL      HG13     HA3      0.900000E-01   1.00800           0
       492 P2PROA   5        VAL      CG2      CT3     -0.270000       12.0110           0
       493 P2PROA   5        VAL      HG21     HA3      0.900000E-01   1.00800           0
       494 P2PROA   5        VAL      HG22     HA3      0.900000E-01   1.00800           0
       495 P2PROA   5        VAL      HG23     HA3      0.900000E-01   1.00800           0
       496 P2PROA   5        VAL      C        C        0.510000       12.0110           0
       497 P2PROA   5        VAL      O        O       -0.510000       15.9994           0
       498 P2PROA   6        LEU      N        NH1     -0.470000       14.0070           0
       499 P2PROA   6        LEU      HN       H        0.310000       1.00800           0
       500 P2PROA   6        LEU      CA       CT1      0.700000E-01   12.0110           0
       501 P2PROA   6        LEU      HA       HB1      0.900000E-01   1.00800           0
       502 P2PROA   6        LEU      CB       CT2     -0.180000       12.0110           0
       503 P2PROA   6        LEU      HB1      HA2      0.900000E-01   1.00800           0
       504 P2PROA   6        LEU      HB2      HA2      0.900000E-01   1.00800           0
       505 P2PROA   6        LEU      CG       CT1     -0.900000E-01   12.0110           0
       506 P2PROA   6        LEU      HG       HA1      0.900000E-01   1.00800           0
       507 P2PROA   6        LEU      CD1      CT3     -0.270000       12.0110           0
       508 P2PROA   6        LEU      HD11     HA3      0.900000E-01   1.00800           0
       509 P2PROA   6        LEU      HD12     HA3      0.900000E-01   1.00800           0
       510 P2PROA   6        LEU      HD13     HA3      0.900000E-01   1.00800           0
       511 P2PROA   6        LEU      CD2      CT3     -0.270000       12.0110           0
       512 P2PROA   6        LEU      HD21     HA3      0.900000E-01   1.00800           0
       513 P2PROA   6        LEU      HD22     HA3      0.900000E-01   1.00800           0
       514 P2PROA   6        LEU      HD23     HA3      0.900000E-01   1.00800           0
       515 P2PROA   6        LEU      C        C        0.510000       12.0110           0
       516 P2PROA   6        LEU      O        O       -0.510000       15.9994           0
       517 P2PROA   7        LYS      N        NH1     -0.470000       14.0070           0
       518 P2PROA   7        LYS      HN       H        0.310000       1.00800           0
       519 P2PROA   7        LYS      CA       CT1      0.700000E-01   12.0110           0
       520 P2PROA   7        LYS      HA       HB1      0.900000E-01   1.00800           0
       521 P2PROA   7        LYS      CB       CT2     -0.180000       12.0110           0
       522 P2PROA   7        LYS      HB1      HA2      0.900000E-01   1.00800           0
       523 P2PROA   7        LYS      HB2      HA2      0.900000E-01   1.00800           0
       524 P2PROA   7        LYS      CG       CT2     -0.180000       12.0110           0
       525 P2PROA   7        LYS      HG1      HA2      0.900000E-01   1.00800           0
       526 P2PROA   7        LYS      HG2      HA2      0.900000E-01   1.00800           0
       527 P2PROA   7        LYS      CD       CT2     -0.180000       12.0110           0
       528 P2PROA   7        LYS      HD1      HA2      0.900000E-01   1.00800           0
       529 P2PROA   7        LYS      HD2      HA2      0.900000E-01   1.00800           0
       530 P2PROA   7        LYS      CE       CT2      0.210000       12.0110           0
       531 P2PROA   7        LYS      HE1      HA2      0.500000E-01   1.00800           0
       532 P2PROA   7        LYS      HE2      HA2      0.500000E-01   1.00800           0
       533 P2PROA   7        LYS      NZ       NH3     -0.300000       14.0070           0
       534 P2PROA   7        LYS      HZ1      HC       0.330000       1.00800           0
       535 P2PROA   7        LYS      HZ2      HC       0.330000       1.00800           0
       536 P2PROA   7        LYS      HZ3      HC       0.330000       1.00800           0
       537 P2PROA   7        LYS      C        C        0.510000       12.0110           0
       538 P2PROA   7        LYS      O        O       -0.510000       15.9994           0
       539 P2PROA   8        VAL      N        NH1     -0.470000       14.0070           0
       540 P2PROA   8        VAL      HN       H        0.310000       1.00800           0
       541 P2PROA   8        VAL      CA       CT1      0.700000E-01   12.0110           0
       542 P2PROA   8        VAL      HA       HB1      0.900000E-01   1.00800           0
       543 P2PROA   8        VAL      CB       CT1     -0.900000E-01   12.0110           0
       544 P2PROA   8        VAL      HB       HA1      0.900000E-01   1.00800           0
       545 P2PROA   8        VAL      CG1      CT3     -0.270000       12.0110           0
       546 P2PROA   8        VAL      HG11     HA3      0.900000E-01   1.00800           0
       547 P2PROA   8        VAL      HG12     HA3      0.900000E-01   1.00800           0
       548 P2PROA   8        VAL      HG13     HA3      0.900000E-01   1.00800           0
       549 P2PROA   8        VAL      CG2      CT3     -0.270000       12.0110           0
       550 P2PROA   8        VAL      HG21     HA3      0.900000E-01   1.00800           0
       551 P2PROA   8        VAL      HG22     HA3      0.900000E-01   1.00800           0
       552 P2PROA   8        VAL      HG23     HA3      0.900000E-01   1.00800           0
       553 P2PROA   8        VAL      C        C        0.510000       12.0110           0
       554 P2PROA   8        VAL      O        O       -0.510000       15.9994           0
       555 P2PROA   9        LEU      N        NH1     -0.470000       14.0070           0
       556 P2PROA   9        LEU      HN       H        0.310000       1.00800           0
       557 P2PROA   9        LEU      CA       CT1      0.700000E-01   12.0110           0
       558 P2PROA   9        LEU      HA       HB1      0.900000E-01   1.00800           0
       559 P2PROA   9        LEU      CB       CT2     -0.180000       12.0110           0
       560 P2PROA   9        LEU      HB1      HA2      0.900000E-01   1.00800           0
       561 P2PROA   9        LEU      HB2      HA2      0.900000E-01   1.00800           0
       562 P2PROA   9        LEU      CG       CT1     -0.900000E-01   12.0110           0
       563 P2PROA   9        LEU      HG       HA1      0.900000E-01   1.00800           0
       564 P2PROA   9        LEU      CD1      CT3     -0.270000       12.0110           0
       565 P2PROA   9        LEU      HD11     HA3      0.900000E-01   1.00800           0
       566 P2PROA   9        LEU      HD12     HA3      0.900000E-01   1.00800           0
       567 P2PROA   9        LEU      HD13     HA3      0.900000E-01   1.00800           0
       568 P2PROA   9        LEU      CD2      CT3     -0.270000       12.0110           0
       569 P2PROA   9        LEU      HD21     HA3      0.900000E-01   1.00800           0
       570 P2PROA   9        LEU      HD22     HA3      0.900000E-01   1.00800           0
       571 P2PROA   9        LEU      HD23     HA3      0.900000E-01   1.00800           0
       572 P2PROA   9        LEU      C        C        0.510000       12.0110           0
       573 P2PROA   9        LEU      O        O       -0.510000       15.9994           0
       574 P2PROA   10       THR      N        NH1     -0.470000       14.0070           0
       575 P2PROA   10       THR      HN       H        0.310000       1.00800           0
       576 P2PROA   10       THR      CA       CT1      0.700000E-01   12.0110           0
       577 P2PROA   10       THR      HA       HB1      0.900000E-01   1.00800           0
       578 P2PROA   10       THR      CB       CT1      0.140000       12.0110           0
       579 P2PROA   10       THR      HB       HA1      0.900000E-01   1.00800           0
       580 P2PROA   10       THR      OG1      OH1     -0.660000       15.9994           0
       581 P2PROA   10       THR      HG1      H        0.430000       1.00800           0
       582 P2PROA   10       THR      CG2      CT3     -0.270000       12.0110           0
       583 P2PROA   10       THR      HG21     HA3      0.900000E-01   1.00800           0
       584 P2PROA   10       THR      HG22     HA3      0.900000E-01   1.00800           0
       585 P2PROA   10       THR      HG23     HA3      0.900000E-01   1.00800           0
       586 P2PROA   10       THR      C        C        0.510000       12.0110           0
       587 P2PROA   10       THR      O        O       -0.510000       15.9994           0
       588 P2PROA   11       THR      N        NH1     -0.470000       14.0070           0
       589 P2PROA   11       THR      HN       H        0.310000       1.00800           0
       590 P2PROA   11       THR      CA       CT1      0.700000E-01   12.0110           0
       591 P2PROA   11       THR      HA       HB1      0.900000E-01   1.00800           0
       592 P2PROA   11       THR      CB       CT1      0.140000       12.0110           0
       593 P2PROA   11       THR      HB       HA1      0.900000E-01   1.00800           0
       594 P2PROA   11       THR      OG1      OH1     -0.660000       15.9994           0
       595 P2PROA   11       THR      HG1      H        0.430000       1.00800           0
       596 P2PROA   11       THR      CG2      CT3     -0.270000       12.0110           0
       597 P2PROA   11       THR      HG21     HA3      0.900000E-01   1.00800           0
       598 P2PROA   11       THR      HG22     HA3      0.900000E-01   1.00800           0
       599 P2PROA   11       THR      HG23     HA3      0.900000E-01   1.00800           0
       600 P2PROA   11       THR      C        C        0.510000       12.0110           0
       601 P2PROA   11       THR      O        O       -0.510000       15.9994           0
       602 P2PROA   12       GLY      N        NH1     -0.470000       14.0070           0
       603 P2PROA   12       GLY      HN       H        0.310000       1.00800           0
       604 P2PROA   12       GLY      CA       CT2     -0.200000E-01   12.0110           0
       605 P2PROA   12       GLY      HA1      HB2      0.900000E-01   1.00800           0
       606 P2PROA   12       GLY      HA2      HB2      0.900000E-01   1.00800           0
       607 P2PROA   12       GLY      C        C        0.510000       12.0110           0
       608 P2PROA   12       GLY      O        O       -0.510000       15.9994           0
       609 P2PROA   13       LEU      N        NH1     -0.470000       14.0070           0
       610 P2PROA   13       LEU      HN       H        0.310000       1.00800           0
       611 P2PROA   13       LEU      CA       CT1      0.700000E-01   12.0110           0
       612 P2PROA   13       LEU      HA       HB1      0.900000E-01   1.00800           0
       613 P2PROA   13       LEU      CB       CT2     -0.180000       12.0110           0
       614 P2PROA   13       LEU      HB1      HA2      0.900000E-01   1.00800           0
       615 P2PROA   13       LEU      HB2      HA2      0.900000E-01   1.00800           0
       616 P2PROA   13       LEU      CG       CT1     -0.900000E-01   12.0110           0
       617 P2PROA   13       LEU      HG       HA1      0.900000E-01   1.00800           0
       618 P2PROA   13       LEU      CD1      CT3     -0.270000       12.0110           0
       619 P2PROA   13       LEU      HD11     HA3      0.900000E-01   1.00800           0
       620 P2PROA   13       LEU      HD12     HA3      0.900000E-01   1.00800           0
       621 P2PROA   13       LEU      HD13     HA3      0.900000E-01   1.00800           0
       622 P2PROA   13       LEU      CD2      CT3     -0.270000       12.0110           0
       623 P2PROA   13       LEU      HD21     HA3      0.900000E-01   1.00800           0
       624 P2PROA   13       LEU      HD22     HA3      0.900000E-01   1.00800           0
       625 P2PROA   13       LEU      HD23     HA3      0.900000E-01   1.00800           0
       626 P2PROA   13       LEU      C        C        0.510000       12.0110           0
       627 P2PROA   13       LEU      O        O       -0.510000       15.9994           0
       628 P2PROA   14       PRO      N        N       -0.290000       14.0070           0
       629 P2PROA   14       PRO      CD       CP3       0.00000       12.0110           0
       630 P2PROA   14       PRO      HD1      HA2      0.900000E-01   1.00800           0
       631 P2PROA   14       PRO      HD2      HA2      0.900000E-01   1.00800           0
       632 P2PROA   14       PRO      CA       CP1      0.200000E-01   12.0110           0
       633 P2PROA   14       PRO      HA       HB1      0.900000E-01   1.00800           0
       634 P2PROA   14       PRO      CB       CP2     -0.180000       12.0110           0
       635 P2PROA   14       PRO      HB1      HA2      0.900000E-01   1.00800           0
       636 P2PROA   14       PRO      HB2      HA2      0.900000E-01   1.00800           0
       637 P2PROA   14       PRO      CG       CP2     -0.180000       12.0110           0
       638 P2PROA   14       PRO      HG1      HA2      0.900000E-01   1.00800           0
       639 P2PROA   14       PRO      HG2      HA2      0.900000E-01   1.00800           0
       640 P2PROA   14       PRO      C        C        0.510000       12.0110           0
       641 P2PROA   14       PRO      O        O       -0.510000       15.9994           0
       642 P2PROA   15       ALA      N        NH1     -0.470000       14.0070           0
       643 P2PROA   15       ALA      HN       H        0.310000       1.00800           0
       644 P2PROA   15       ALA      CA       CT1      0.700000E-01   12.0110           0
       645 P2PROA   15       ALA      HA       HB1      0.900000E-01   1.00800           0
       646 P2PROA   15       ALA      CB       CT3     -0.270000       12.0110           0
       647 P2PROA   15       ALA      HB1      HA3      0.900000E-01   1.00800           0
       648 P2PROA   15       ALA      HB2      HA3      0.900000E-01   1.00800           0
       649 P2PROA   15       ALA      HB3      HA3      0.900000E-01   1.00800           0
       650 P2PROA   15       ALA      C        C        0.510000       12.0110           0
       651 P2PROA   15       ALA      O        O       -0.510000       15.9994           0
       652 P2PROA   16       LEU      N        NH1     -0.470000       14.0070           0
       653 P2PROA   16       LEU      HN       H        0.310000       1.00800           0
       654 P2PROA   16       LEU      CA       CT1      0.700000E-01   12.0110           0
       655 P2PROA   16       LEU      HA       HB1      0.900000E-01   1.00800           0
       656 P2PROA   16       LEU      CB       CT2     -0.180000       12.0110           0
       657 P2PROA   16       LEU      HB1      HA2      0.900000E-01   1.00800           0
       658 P2PROA   16       LEU      HB2      HA2      0.900000E-01   1.00800           0
       659 P2PROA   16       LEU      CG       CT1     -0.900000E-01   12.0110           0
       660 P2PROA   16       LEU      HG       HA1      0.900000E-01   1.00800           0
       661 P2PROA   16       LEU      CD1      CT3     -0.270000       12.0110           0
       662 P2PROA   16       LEU      HD11     HA3      0.900000E-01   1.00800           0
       663 P2PROA   16       LEU      HD12     HA3      0.900000E-01   1.00800           0
       664 P2PROA   16       LEU      HD13     HA3      0.900000E-01   1.00800           0
       665 P2PROA   16       LEU      CD2      CT3     -0.270000       12.0110           0
       666 P2PROA   16       LEU      HD21     HA3      0.900000E-01   1.00800           0
       667 P2PROA   16       LEU      HD22     HA3      0.900000E-01   1.00800           0
       668 P2PROA   16       LEU      HD23     HA3      0.900000E-01   1.00800           0
       669 P2PROA   16       LEU      C        C        0.510000       12.0110           0
       670 P2PROA   16       LEU      O        O       -0.510000       15.9994           0
       671 P2PROA   17       ILE      N        NH1     -0.470000       14.0070           0
       672 P2PROA   17       ILE      HN       H        0.310000       1.00800           0
       673 P2PROA   17       ILE      CA       CT1      0.700000E-01   12.0110           0
       674 P2PROA   17       ILE      HA       HB1      0.900000E-01   1.00800           0
       675 P2PROA   17       ILE      CB       CT1     -0.900000E-01   12.0110           0
       676 P2PROA   17       ILE      HB       HA1      0.900000E-01   1.00800           0
       677 P2PROA   17       ILE      CG2      CT3     -0.270000       12.0110           0
       678 P2PROA   17       ILE      HG21     HA3      0.900000E-01   1.00800           0
       679 P2PROA   17       ILE      HG22     HA3      0.900000E-01   1.00800           0
       680 P2PROA   17       ILE      HG23     HA3      0.900000E-01   1.00800           0
       681 P2PROA   17       ILE      CG1      CT2     -0.180000       12.0110           0
       682 P2PROA   17       ILE      HG11     HA2      0.900000E-01   1.00800           0
       683 P2PROA   17       ILE      HG12     HA2      0.900000E-01   1.00800           0
       684 P2PROA   17       ILE      CD       CT3     -0.270000       12.0110           0
       685 P2PROA   17       ILE      HD1      HA3      0.900000E-01   1.00800           0
       686 P2PROA   17       ILE      HD2      HA3      0.900000E-01   1.00800           0
       687 P2PROA   17       ILE      HD3      HA3      0.900000E-01   1.00800           0
       688 P2PROA   17       ILE      C        C        0.510000       12.0110           0
       689 P2PROA   17       ILE      O        O       -0.510000       15.9994           0
       690 P2PROA   18       SER      N        NH1     -0.470000       14.0070           0
       691 P2PROA   18       SER      HN       H        0.310000       1.00800           0
       692 P2PROA   18       SER      CA       CT1      0.700000E-01   12.0110           0
       693 P2PROA   18       SER      HA       HB1      0.900000E-01   1.00800           0
       694 P2PROA   18       SER      CB       CT2      0.500000E-01   12.0110           0
       695 P2PROA   18       SER      HB1      HA2      0.900000E-01   1.00800           0
       696 P2PROA   18       SER      HB2      HA2      0.900000E-01   1.00800           0
       697 P2PROA   18       SER      OG       OH1     -0.660000       15.9994           0
       698 P2PROA   18       SER      HG1      H        0.430000       1.00800           0
       699 P2PROA   18       SER      C        C        0.510000       12.0110           0
       700 P2PROA   18       SER      O        O       -0.510000       15.9994           0
       701 P2PROA   19       TRP      N        NH1     -0.470000       14.0070           0
       702 P2PROA   19       TRP      HN       H        0.310000       1.00800           0
       703 P2PROA   19       TRP      CA       CT1      0.700000E-01   12.0110           0
       704 P2PROA   19       TRP      HA       HB1      0.900000E-01   1.00800           0
       705 P2PROA   19       TRP      CB       CT2     -0.180000       12.0110           0
       706 P2PROA   19       TRP      HB1      HA2      0.900000E-01   1.00800           0
       707 P2PROA   19       TRP      HB2      HA2      0.900000E-01   1.00800           0
       708 P2PROA   19       TRP      CG       CY      -0.300000E-01   12.0110           0
       709 P2PROA   19       TRP      CD1      CA      -0.150000       12.0110           0
       710 P2PROA   19       TRP      HD1      HP       0.220000       1.00800           0
       711 P2PROA   19       TRP      NE1      NY      -0.510000       14.0070           0
       712 P2PROA   19       TRP      HE1      H        0.370000       1.00800           0
       713 P2PROA   19       TRP      CE2      CPT      0.240000       12.0110           0
       714 P2PROA   19       TRP      CD2      CPT      0.110000       12.0110           0
       715 P2PROA   19       TRP      CE3      CAI     -0.250000       12.0110           0
       716 P2PROA   19       TRP      HE3      HP       0.170000       1.00800           0
       717 P2PROA   19       TRP      CZ3      CA      -0.200000       12.0110           0
       718 P2PROA   19       TRP      HZ3      HP       0.140000       1.00800           0
       719 P2PROA   19       TRP      CZ2      CAI     -0.270000       12.0110           0
       720 P2PROA   19       TRP      HZ2      HP       0.160000       1.00800           0
       721 P2PROA   19       TRP      CH2      CA      -0.140000       12.0110           0
       722 P2PROA   19       TRP      HH2      HP       0.140000       1.00800           0
       723 P2PROA   19       TRP      C        C        0.510000       12.0110           0
       724 P2PROA   19       TRP      O        O       -0.510000       15.9994           0
       725 P2PROA   20       ILE      N        NH1     -0.470000       14.0070           0
       726 P2PROA   20       ILE      HN       H        0.310000       1.00800           0
       727 P2PROA   20       ILE      CA       CT1      0.700000E-01   12.0110           0
       728 P2PROA   20       ILE      HA       HB1      0.900000E-01   1.00800           0
       729 P2PROA   20       ILE      CB       CT1     -0.900000E-01   12.0110           0
       730 P2PROA   20       ILE      HB       HA1      0.900000E-01   1.00800           0
       731 P2PROA   20       ILE      CG2      CT3     -0.270000       12.0110           0
       732 P2PROA   20       ILE      HG21     HA3      0.900000E-01   1.00800           0
       733 P2PROA   20       ILE      HG22     HA3      0.900000E-01   1.00800           0
       734 P2PROA   20       ILE      HG23     HA3      0.900000E-01   1.00800           0
       735 P2PROA   20       ILE      CG1      CT2     -0.180000       12.0110           0
       736 P2PROA   20       ILE      HG11     HA2      0.900000E-01   1.00800           0
       737 P2PROA   20       ILE      HG12     HA2      0.900000E-01   1.00800           0
       738 P2PROA   20       ILE      CD       CT3     -0.270000       12.0110           0
       739 P2PROA   20       ILE      HD1      HA3      0.900000E-01   1.00800           0
       740 P2PROA   20       ILE      HD2      HA3      0.900000E-01   1.00800           0
       741 P2PROA   20       ILE      HD3      HA3      0.900000E-01   1.00800           0
       742 P2PROA   20       ILE      C        C        0.510000       12.0110           0
       743 P2PROA   20       ILE      O        O       -0.510000       15.9994           0
       744 P2PROA   21       LYS      N        NH1     -0.470000       14.0070           0
       745 P2PROA   21       LYS      HN       H        0.310000       1.00800           0
       746 P2PROA   21       LYS      CA       CT1      0.700000E-01   12.0110           0
       747 P2PROA   21       LYS      HA       HB1      0.900000E-01   1.00800           0
       748 P2PROA   21       LYS      CB       CT2     -0.180000       12.0110           0
       749 P2PROA   21       LYS      HB1      HA2      0.900000E-01   1.00800           0
       750 P2PROA   21       LYS      HB2      HA2      0.900000E-01   1.00800           0
       751 P2PROA   21       LYS      CG       CT2     -0.180000       12.0110           0
       752 P2PROA   21       LYS      HG1      HA2      0.900000E-01   1.00800           0
       753 P2PROA   21       LYS      HG2      HA2      0.900000E-01   1.00800           0
       754 P2PROA   21       LYS      CD       CT2     -0.180000       12.0110           0
       755 P2PROA   21       LYS      HD1      HA2      0.900000E-01   1.00800           0
       756 P2PROA   21       LYS      HD2      HA2      0.900000E-01   1.00800           0
       757 P2PROA   21       LYS      CE       CT2      0.210000       12.0110           0
       758 P2PROA   21       LYS      HE1      HA2      0.500000E-01   1.00800           0
       759 P2PROA   21       LYS      HE2      HA2      0.500000E-01   1.00800           0
       760 P2PROA   21       LYS      NZ       NH3     -0.300000       14.0070           0
       761 P2PROA   21       LYS      HZ1      HC       0.330000       1.00800           0
       762 P2PROA   21       LYS      HZ2      HC       0.330000       1.00800           0
       763 P2PROA   21       LYS      HZ3      HC       0.330000       1.00800           0
       764 P2PROA   21       LYS      C        C        0.510000       12.0110           0
       765 P2PROA   21       LYS      O        O       -0.510000       15.9994           0
       766 P2PROA   22       ARG      N        NH1     -0.470000       14.0070           0
       767 P2PROA   22       ARG      HN       H        0.310000       1.00800           0
       768 P2PROA   22       ARG      CA       CT1      0.700000E-01   12.0110           0
       769 P2PROA   22       ARG      HA       HB1      0.900000E-01   1.00800           0
       770 P2PROA   22       ARG      CB       CT2     -0.180000       12.0110           0
       771 P2PROA   22       ARG      HB1      HA2      0.900000E-01   1.00800           0
       772 P2PROA   22       ARG      HB2      HA2      0.900000E-01   1.00800           0
       773 P2PROA   22       ARG      CG       CT2     -0.180000       12.0110           0
       774 P2PROA   22       ARG      HG1      HA2      0.900000E-01   1.00800           0
       775 P2PROA   22       ARG      HG2      HA2      0.900000E-01   1.00800           0
       776 P2PROA   22       ARG      CD       CT2      0.200000       12.0110           0
       777 P2PROA   22       ARG      HD1      HA2      0.900000E-01   1.00800           0
       778 P2PROA   22       ARG      HD2      HA2      0.900000E-01   1.00800           0
       779 P2PROA   22       ARG      NE       NC2     -0.700000       14.0070           0
       780 P2PROA   22       ARG      HE       HC       0.440000       1.00800           0
       781 P2PROA   22       ARG      CZ       C        0.640000       12.0110           0
       782 P2PROA   22       ARG      NH1      NC2     -0.800000       14.0070           0
       783 P2PROA   22       ARG      HH11     HC       0.460000       1.00800           0
       784 P2PROA   22       ARG      HH12     HC       0.460000       1.00800           0
       785 P2PROA   22       ARG      NH2      NC2     -0.800000       14.0070           0
       786 P2PROA   22       ARG      HH21     HC       0.460000       1.00800           0
       787 P2PROA   22       ARG      HH22     HC       0.460000       1.00800           0
       788 P2PROA   22       ARG      C        C        0.510000       12.0110           0
       789 P2PROA   22       ARG      O        O       -0.510000       15.9994           0
       790 P2PROA   23       LYS      N        NH1     -0.470000       14.0070           0
       791 P2PROA   23       LYS      HN       H        0.310000       1.00800           0
       792 P2PROA   23       LYS      CA       CT1      0.700000E-01   12.0110           0
       793 P2PROA   23       LYS      HA       HB1      0.900000E-01   1.00800           0
       794 P2PROA   23       LYS      CB       CT2     -0.180000       12.0110           0
       795 P2PROA   23       LYS      HB1      HA2      0.900000E-01   1.00800           0
       796 P2PROA   23       LYS      HB2      HA2      0.900000E-01   1.00800           0
       797 P2PROA   23       LYS      CG       CT2     -0.180000       12.0110           0
       798 P2PROA   23       LYS      HG1      HA2      0.900000E-01   1.00800           0
       799 P2PROA   23       LYS      HG2      HA2      0.900000E-01   1.00800           0
       800 P2PROA   23       LYS      CD       CT2     -0.180000       12.0110           0
       801 P2PROA   23       LYS      HD1      HA2      0.900000E-01   1.00800           0
       802 P2PROA   23       LYS      HD2      HA2      0.900000E-01   1.00800           0
       803 P2PROA   23       LYS      CE       CT2      0.210000       12.0110           0
       804 P2PROA   23       LYS      HE1      HA2      0.500000E-01   1.00800           0
       805 P2PROA   23       LYS      HE2      HA2      0.500000E-01   1.00800           0
       806 P2PROA   23       LYS      NZ       NH3     -0.300000       14.0070           0
       807 P2PROA   23       LYS      HZ1      HC       0.330000       1.00800           0
       808 P2PROA   23       LYS      HZ2      HC       0.330000       1.00800           0
       809 P2PROA   23       LYS      HZ3      HC       0.330000       1.00800           0
       810 P2PROA   23       LYS      C        C        0.510000       12.0110           0
       811 P2PROA   23       LYS      O        O       -0.510000       15.9994           0
       812 P2PROA   24       ARG      N        NH1     -0.470000       14.0070           0
       813 P2PROA   24       ARG      HN       H        0.310000       1.00800           0
       814 P2PROA   24       ARG      CA       CT1      0.700000E-01   12.0110           0
       815 P2PROA   24       ARG      HA       HB1      0.900000E-01   1.00800           0
       816 P2PROA   24       ARG      CB       CT2     -0.180000       12.0110           0
       817 P2PROA   24       ARG      HB1      HA2      0.900000E-01   1.00800           0
       818 P2PROA   24       ARG      HB2      HA2      0.900000E-01   1.00800           0
       819 P2PROA   24       ARG      CG       CT2     -0.180000       12.0110           0
       820 P2PROA   24       ARG      HG1      HA2      0.900000E-01   1.00800           0
       821 P2PROA   24       ARG      HG2      HA2      0.900000E-01   1.00800           0
       822 P2PROA   24       ARG      CD       CT2      0.200000       12.0110           0
       823 P2PROA   24       ARG      HD1      HA2      0.900000E-01   1.00800           0
       824 P2PROA   24       ARG      HD2      HA2      0.900000E-01   1.00800           0
       825 P2PROA   24       ARG      NE       NC2     -0.700000       14.0070           0
       826 P2PROA   24       ARG      HE       HC       0.440000       1.00800           0
       827 P2PROA   24       ARG      CZ       C        0.640000       12.0110           0
       828 P2PROA   24       ARG      NH1      NC2     -0.800000       14.0070           0
       829 P2PROA   24       ARG      HH11     HC       0.460000       1.00800           0
       830 P2PROA   24       ARG      HH12     HC       0.460000       1.00800           0
       831 P2PROA   24       ARG      NH2      NC2     -0.800000       14.0070           0
       832 P2PROA   24       ARG      HH21     HC       0.460000       1.00800           0
       833 P2PROA   24       ARG      HH22     HC       0.460000       1.00800           0
       834 P2PROA   24       ARG      C        C        0.510000       12.0110           0
       835 P2PROA   24       ARG      O        O       -0.510000       15.9994           0
       836 P2PROA   25       GLN      N        NH1     -0.470000       14.0070           0
       837 P2PROA   25       GLN      HN       H        0.310000       1.00800           0
       838 P2PROA   25       GLN      CA       CT1      0.700000E-01   12.0110           0
       839 P2PROA   25       GLN      HA       HB1      0.900000E-01   1.00800           0
       840 P2PROA   25       GLN      CB       CT2     -0.180000       12.0110           0
       841 P2PROA   25       GLN      HB1      HA2      0.900000E-01   1.00800           0
       842 P2PROA   25       GLN      HB2      HA2      0.900000E-01   1.00800           0
       843 P2PROA   25       GLN      CG       CT2     -0.180000       12.0110           0
       844 P2PROA   25       GLN      HG1      HA2      0.900000E-01   1.00800           0
       845 P2PROA   25       GLN      HG2      HA2      0.900000E-01   1.00800           0
       846 P2PROA   25       GLN      CD       CC       0.550000       12.0110           0
       847 P2PROA   25       GLN      OE1      O       -0.550000       15.9994           0
       848 P2PROA   25       GLN      NE2      NH2     -0.620000       14.0070           0
       849 P2PROA   25       GLN      HE21     H        0.320000       1.00800           0
       850 P2PROA   25       GLN      HE22     H        0.300000       1.00800           0
       851 P2PROA   25       GLN      C        C        0.510000       12.0110           0
       852 P2PROA   25       GLN      O        O       -0.510000       15.9994           0
       853 P2PROA   26       GLN      N        NH1     -0.470000       14.0070           0
       854 P2PROA   26       GLN      HN       H        0.310000       1.00800           0
       855 P2PROA   26       GLN      CA       CT1      0.700000E-01   12.0110           0
       856 P2PROA   26       GLN      HA       HB1      0.900000E-01   1.00800           0
       857 P2PROA   26       GLN      CB       CT2     -0.180000       12.0110           0
       858 P2PROA   26       GLN      HB1      HA2      0.900000E-01   1.00800           0
       859 P2PROA   26       GLN      HB2      HA2      0.900000E-01   1.00800           0
       860 P2PROA   26       GLN      CG       CT2     -0.180000       12.0110           0
       861 P2PROA   26       GLN      HG1      HA2      0.900000E-01   1.00800           0
       862 P2PROA   26       GLN      HG2      HA2      0.900000E-01   1.00800           0
       863 P2PROA   26       GLN      CD       CC       0.550000       12.0110           0
       864 P2PROA   26       GLN      OE1      O       -0.550000       15.9994           0
       865 P2PROA   26       GLN      NE2      NH2     -0.620000       14.0070           0
       866 P2PROA   26       GLN      HE21     H        0.320000       1.00800           0
       867 P2PROA   26       GLN      HE22     H        0.300000       1.00800           0
       868 P2PROA   26       GLN      C        CC       0.550000       12.0110           0
       869 P2PROA   26       GLN      O        O       -0.550000       15.9994           0
       870 P2PROA   26       GLN      NT       NH2     -0.620000       14.0070           0
       871 P2PROA   26       GLN      HT1      H        0.320000       1.00800           0
       872 P2PROA   26       GLN      HT2      H        0.300000       1.00800           0

       876 !NBOND: bonds
         2         1         3         1         4         1         1         5
         8         5         8        10         5         6         5         7
         9         8        14        12        20        14        16        14
        23        20        10        11        10        12        27        12
        27        29        12        13        14        15        20        21
        20        22        16        17        16        18        16        19
        23        24        23        25        23        26        28        27
        29        30        29        31        34        31        34        36
        31        32        31        33        35        34        40        38
        36        37        36        38        44        38        44        46
        38        39        40        41        40        42        40        43
        45        44        50        48        52        50        56        50
        46        47        46        48        60        48        60        62
        48        49        50        51        52        53        52        54
        52        55        56        57        56        58        56        59
        61        60        66        64        69        66        71        69
        75        69        62        63        62        64        79        64
        79        81        64        65        66        67        66        68
        69        70        71        72        71        73        71        74
        75        76        75        77        75        78        80        79
        85        83        88        85        91        88        94        91
        97        94        81        82        81        83       101        83
       101       103        83        84        85        86        85        87
        88        89        88        90        91        92        91        93
        94        95        94        96       102       101        97        98
        97        99        97       100       107       105       109       107
       113       107       103       104       103       105       117       105
       117       119       105       106       107       108       109       110
       109       111       109       112       113       114       113       115
       113       116       118       117       123       121       126       123
       128       126       132       126       119       120       119       121
       136       121       136       138       121       122       123       124
       123       125       126       127       128       129       128       130
       128       131       132       133       132       134       132       135
       137       136       142       140       144       142       146       142
       138       139       138       140       150       140       150       152
       140       141       142       143       144       145       146       147
       146       148       146       149       151       150       156       154
       158       156       160       156       152       153       152       154
       164       154       164       166       154       155       156       157
       158       159       160       161       160       162       160       163
       165       164       166       167       166       168       171       168
       171       173       168       169       168       170       172       171
       177       175       180       177       182       180       186       180
       173       174       173       175       190       175       190       192
       175       176       177       178       177       179       180       181
       182       183       182       184       182       185       186       187
       186       188       186       189       191       190       204       196
       204       206       192       196       196       198       198       201
       201       193       192       193       197       196       202       201
       203       201       194       193       195       193       199       198
       200       198       205       204       210       208       206       207
       206       208       214       208       214       216       208       209
       210       211       210       212       210       213       215       214
       220       218       223       220       225       223       229       223
       216       217       216       218       233       218       233       235
       218       219       220       221       220       222       223       224
       225       226       225       227       225       228       229       230
       229       231       229       232       234       233       239       237
       245       239       241       239       248       245       235       236
       235       237       252       237       252       254       237       238
       239       240       245       246       245       247       241       242
       241       243       241       244       248       249       248       250
       248       251       253       252       258       256       261       258
       254       255       254       256       263       256       263       265
       256       257       258       259       258       260       261       262
       264       263       269       267       272       269       278       272
       275       273       283       277       265       266       265       267
       287       267       287       289       281       285       278       279
       275       277       267       268       269       270       269       271
       273       274       275       276       279       280       283       284
       281       282       285       286       288       287       273       272
       277       278       281       279       285       283       293       291
       299       293       295       293       302       299       289       290
       289       291       306       291       306       308       291       292
       293       294       299       300       299       301       295       296
       295       297       295       298       302       303       302       304
       302       305       307       306       312       310       315       312
       318       315       321       318       324       321       308       309
       308       310       328       310       328       330       310       311
       312       313       312       314       315       316       315       317
       318       319       318       320       321       322       321       323
       329       328       324       325       324       326       324       327
       334       332       337       334       340       337       343       340
       345       343       349       345       330       331       330       332
       352       332       352       354       332       333       334       335
       334       336       337       338       337       339       340       341
       340       342       343       344       346       347       346       348
       349       350       349       351       353       352       345       346
       358       356       361       358       364       361       367       364
       370       367       354       355       354       356       374       356
       374       376       356       357       358       359       358       360
       361       362       361       363       364       365       364       366
       367       368       367       369       375       374       370       371
       370       372       370       373       380       378       383       380
       386       383       389       386       391       389       395       391
       376       377       376       378       398       378       398       400
       378       379       380       381       380       382       383       384
       383       385       386       387       386       388       389       390
       392       393       392       394       395       396       395       397
       399       398       391       392       404       402       407       404
       410       407       412       410       400       401       400       402
       415       402       415       417       402       403       404       405
       404       406       407       408       407       409       412       413
       412       414       416       415       410       411       421       419
       424       421       427       424       429       427       417       418
       417       419       432       419       419       420       421       422
       421       423       424       425       424       426       429       430
       429       431       433       432       427       428       432       434
       434       435       434       436       438       437       439       437
       440       437       437       441       444       441       444       446
       441       442       441       443       445       444       450       448
       456       450       452       450       459       456       446       447
       446       448       463       448       463       465       448       449
       450       451       456       457       456       458       452       453
       452       454       452       455       459       460       459       461
       459       462       464       463       465       466       465       467
       470       467       470       472       467       468       467       469
       471       470       476       474       472       473       472       474
       480       474       480       482       474       475       476       477
       476       478       476       479       481       480       486       484
       488       486       492       486       482       483       482       484
       496       484       496       498       484       485       486       487
       488       489       488       490       488       491       492       493
       492       494       492       495       497       496       502       500
       505       502       507       505       511       505       498       499
       498       500       515       500       515       517       500       501
       502       503       502       504       505       506       507       508
       507       509       507       510       511       512       511       513
       511       514       516       515       521       519       524       521
       527       524       530       527       533       530       517       518
       517       519       537       519       537       539       519       520
       521       522       521       523       524       525       524       526
       527       528       527       529       530       531       530       532
       538       537       533       534       533       535       533       536
       543       541       545       543       549       543       539       540
       539       541       553       541       553       555       541       542
       543       544       545       546       545       547       545       548
       549       550       549       551       549       552       554       553
       559       557       562       559       564       562       568       562
       555       556       555       557       572       557       572       574
       557       558       559       560       559       561       562       563
       564       565       564       566       564       567       568       569
       568       570       568       571       573       572       578       576
       580       578       582       578       574       575       574       576
       586       576       586       588       576       577       578       579
       580       581       582       583       582       584       582       585
       587       586       592       590       594       592       596       592
       588       589       588       590       600       590       600       602
       590       591       592       593       594       595       596       597
       596       598       596       599       601       600       602       603
       602       604       607       604       607       609       604       605
       604       606       608       607       613       611       616       613
       618       616       622       616       609       610       609       611
       626       611       626       628       611       612       613       614
       613       615       616       617       618       619       618       620
       618       621       622       623       622       624       622       625
       627       626       640       632       640       642       628       632
       632       634       634       637       637       629       628       629
       633       632       638       637       639       637       630       629
       631       629       635       634       636       634       641       640
       646       644       642       643       642       644       650       644
       650       652       644       645       646       647       646       648
       646       649       651       650       656       654       659       656
       661       659       665       659       652       653       652       654
       669       654       669       671       654       655       656       657
       656       658       659       660       661       662       661       663
       661       664       665       666       665       667       665       668
       670       669       675       673       681       675       677       675
       684       681       671       672       671       673       688       673
       688       690       673       674       675       676       681       682
       681       683       677       678       677       679       677       680
       684       685       684       686       684       687       689       688
       694       692       697       694       690       691       690       692
       699       692       699       701       692       693       694       695
       694       696       697       698       700       699       705       703
       708       705       714       708       711       709       719       713
       701       702       701       703       723       703       723       725
       717       721       714       715       711       713       703       704
       705       706       705       707       709       710       711       712
       715       716       719       720       717       718       721       722
       724       723       709       708       713       714       717       715
       721       719       729       727       735       729       731       729
       738       735       725       726       725       727       742       727
       742       744       727       728       729       730       735       736
       735       737       731       732       731       733       731       734
       738       739       738       740       738       741       743       742
       748       746       751       748       754       751       757       754
       760       757       744       745       744       746       764       746
       764       766       746       747       748       749       748       750
       751       752       751       753       754       755       754       756
       757       758       757       759       765       764       760       761
       760       762       760       763       770       768       773       770
       776       773       779       776       781       779       785       781
       766       767       766       768       788       768       788       790
       768       769       770       771       770       772       773       774
       773       775       776       777       776       778       779       780
       782       783       782       784       785       786       785       787
       789       788       781       782       794       792       797       794
       800       797       803       800       806       803       790       791
       790       792       810       792       810       812       792       793
       794       795       794       796       797       798       797       799
       800       801       800       802       803       804       803       805
       811       810       806       807       806       808       806       809
       816       814       819       816       822       819       825       822
       827       825       831       827       812       813       812       814
       834       814       834       836       814       815       816       817
       816       818       819       820       819       821       822       823
       822       824       825       826       828       829       828       830
       831       832       831       833       835       834       827       828
       840       838       843       840       846       843       848       846
       836       837       836       838       851       838       851       853
       838       839       840       841       840       842       843       844
       843       845       848       849       848       850       852       851
       846       847       857       855       860       857       863       860
       865       863       853       854       853       855       868       855
       855       856       857       858       857       859       860       861
       860       862       865       866       865       867       869       868
       863       864       868       870       870       871       870       872

      1608 !NTHETA: angles
         2         1         3         2         1         4         2         1         5
         3         1         4         3         1         5         4         1         5
         1         5         6         1         5         7         1         5         8
         6         5         7         6         5         8         7         5         8
         5         8         9         5         8        10         9         8        10
         8        10        11         8        10        12        11        10        12
        10        12        13        10        12        14        10        12        27
        13        12        14        13        12        27        14        12        27
        12        14        15        12        14        16        12        14        20
        15        14        16        15        14        20        16        14        20
        14        16        17        14        16        18        14        16        19
        17        16        18        17        16        19        18        16        19
        14        20        21        14        20        22        14        20        23
        21        20        22        21        20        23        22        20        23
        20        23        24        20        23        25        20        23        26
        24        23        25        24        23        26        25        23        26
        12        27        28        12        27        29        28        27        29
        27        29        30        27        29        31        30        29        31
        29        31        32        29        31        33        29        31        34
        32        31        33        32        31        34        33        31        34
        31        34        35        31        34        36        35        34        36
        34        36        37        34        36        38        37        36        38
        36        38        39        36        38        40        36        38        44
        39        38        40        39        38        44        40        38        44
        38        40        41        38        40        42        38        40        43
        41        40        42        41        40        43        42        40        43
        38        44        45        38        44        46        45        44        46
        44        46        47        44        46        48        47        46        48
        46        48        49        46        48        50        46        48        60
        49        48        50        49        48        60        50        48        60
        48        50        51        48        50        52        48        50        56
        51        50        52        51        50        56        52        50        56
        50        52        53        50        52        54        50        52        55
        53        52        54        53        52        55        54        52        55
        50        56        57        50        56        58        50        56        59
        57        56        58        57        56        59        58        56        59
        48        60        61        48        60        62        61        60        62
        60        62        63        60        62        64        63        62        64
        62        64        65        62        64        66        62        64        79
        65        64        66        65        64        79        66        64        79
        64        66        67        64        66        68        64        66        69
        67        66        68        67        66        69        68        66        69
        66        69        70        66        69        71        66        69        75
        70        69        71        70        69        75        71        69        75
        69        71        72        69        71        73        69        71        74
        72        71        73        72        71        74        73        71        74
        69        75        76        69        75        77        69        75        78
        76        75        77        76        75        78        77        75        78
        64        79        80        64        79        81        80        79        81
        79        81        82        79        81        83        82        81        83
        81        83        84        81        83        85        81        83       101
        84        83        85        84        83       101        85        83       101
        83        85        86        83        85        87        83        85        88
        86        85        87        86        85        88        87        85        88
        85        88        89        85        88        90        85        88        91
        89        88        90        89        88        91        90        88        91
        88        91        92        88        91        93        88        91        94
        92        91        93        92        91        94        93        91        94
        91        94        95        91        94        96        91        94        97
        95        94        96        95        94        97        96        94        97
        94        97        98        94        97        99        94        97       100
        98        97        99        98        97       100        99        97       100
        83       101       102        83       101       103       102       101       103
       101       103       104       101       103       105       104       103       105
       103       105       106       103       105       107       103       105       117
       106       105       107       106       105       117       107       105       117
       105       107       108       105       107       109       105       107       113
       108       107       109       108       107       113       109       107       113
       107       109       110       107       109       111       107       109       112
       110       109       111       110       109       112       111       109       112
       107       113       114       107       113       115       107       113       116
       114       113       115       114       113       116       115       113       116
       105       117       118       105       117       119       118       117       119
       117       119       120       117       119       121       120       119       121
       119       121       122       119       121       123       119       121       136
       122       121       123       122       121       136       123       121       136
       121       123       124       121       123       125       121       123       126
       124       123       125       124       123       126       125       123       126
       123       126       127       123       126       128       123       126       132
       127       126       128       127       126       132       128       126       132
       126       128       129       126       128       130       126       128       131
       129       128       130       129       128       131       130       128       131
       126       132       133       126       132       134       126       132       135
       133       132       134       133       132       135       134       132       135
       121       136       137       121       136       138       137       136       138
       136       138       139       136       138       140       139       138       140
       138       140       141       138       140       142       138       140       150
       141       140       142       141       140       150       142       140       150
       140       142       143       140       142       144       140       142       146
       143       142       144       143       142       146       144       142       146
       142       144       145       142       146       147       142       146       148
       142       146       149       147       146       148       147       146       149
       148       146       149       140       150       151       140       150       152
       151       150       152       150       152       153       150       152       154
       153       152       154       152       154       155       152       154       156
       152       154       164       155       154       156       155       154       164
       156       154       164       154       156       157       154       156       158
       154       156       160       157       156       158       157       156       160
       158       156       160       156       158       159       156       160       161
       156       160       162       156       160       163       161       160       162
       161       160       163       162       160       163       154       164       165
       154       164       166       165       164       166       164       166       167
       164       166       168       167       166       168       166       168       169
       166       168       170       166       168       171       169       168       170
       169       168       171       170       168       171       168       171       172
       168       171       173       172       171       173       171       173       174
       171       173       175       174       173       175       173       175       176
       173       175       177       173       175       190       176       175       177
       176       175       190       177       175       190       175       177       178
       175       177       179       175       177       180       178       177       179
       178       177       180       179       177       180       177       180       181
       177       180       182       177       180       186       181       180       182
       181       180       186       182       180       186       180       182       183
       180       182       184       180       182       185       183       182       184
       183       182       185       184       182       185       180       186       187
       180       186       188       180       186       189       187       186       188
       187       186       189       188       186       189       175       190       191
       175       190       192       191       190       192       190       192       193
       190       192       196       193       192       196       192       193       194
       192       193       195       192       193       201       194       193       195
       194       193       201       195       193       201       192       196       197
       192       196       198       192       196       204       197       196       198
       197       196       204       198       196       204       196       198       199
       196       198       200       196       198       201       199       198       200
       199       198       201       200       198       201       193       201       198
       193       201       202       193       201       203       198       201       202
       198       201       203       202       201       203       196       204       205
       196       204       206       205       204       206       204       206       207
       204       206       208       207       206       208       206       208       209
       206       208       210       206       208       214       209       208       210
       209       208       214       210       208       214       208       210       211
       208       210       212       208       210       213       211       210       212
       211       210       213       212       210       213       208       214       215
       208       214       216       215       214       216       214       216       217
       214       216       218       217       216       218       216       218       219
       216       218       220       216       218       233       219       218       220
       219       218       233       220       218       233       218       220       221
       218       220       222       218       220       223       221       220       222
       221       220       223       222       220       223       220       223       224
       220       223       225       220       223       229       224       223       225
       224       223       229       225       223       229       223       225       226
       223       225       227       223       225       228       226       225       227
       226       225       228       227       225       228       223       229       230
       223       229       231       223       229       232       230       229       231
       230       229       232       231       229       232       218       233       234
       218       233       235       234       233       235       233       235       236
       233       235       237       236       235       237       235       237       238
       235       237       239       235       237       252       238       237       239
       238       237       252       239       237       252       237       239       240
       237       239       241       237       239       245       240       239       241
       240       239       245       241       239       245       239       241       242
       239       241       243       239       241       244       242       241       243
       242       241       244       243       241       244       239       245       246
       239       245       247       239       245       248       246       245       247
       246       245       248       247       245       248       245       248       249
       245       248       250       245       248       251       249       248       250
       249       248       251       250       248       251       237       252       253
       237       252       254       253       252       254       252       254       255
       252       254       256       255       254       256       254       256       257
       254       256       258       254       256       263       257       256       258
       257       256       263       258       256       263       256       258       259
       256       258       260       256       258       261       259       258       260
       259       258       261       260       258       261       258       261       262
       256       263       264       256       263       265       264       263       265
       263       265       266       263       265       267       266       265       267
       265       267       268       265       267       269       265       267       287
       268       267       269       268       267       287       269       267       287
       267       269       270       267       269       271       267       269       272
       270       269       271       270       269       272       271       269       272
       269       272       273       269       272       278       273       272       278
       272       273       274       272       273       275       274       273       275
       273       275       276       273       275       277       276       275       277
       275       277       278       275       277       283       278       277       283
       272       278       277       272       278       279       277       278       279
       278       279       280       278       279       281       280       279       281
       279       281       282       279       281       285       282       281       285
       277       283       284       277       283       285       284       283       285
       281       285       283       281       285       286       283       285       286
       267       287       288       267       287       289       288       287       289
       287       289       290       287       289       291       290       289       291
       289       291       292       289       291       293       289       291       306
       292       291       293       292       291       306       293       291       306
       291       293       294       291       293       295       291       293       299
       294       293       295       294       293       299       295       293       299
       293       295       296       293       295       297       293       295       298
       296       295       297       296       295       298       297       295       298
       293       299       300       293       299       301       293       299       302
       300       299       301       300       299       302       301       299       302
       299       302       303       299       302       304       299       302       305
       303       302       304       303       302       305       304       302       305
       291       306       307       291       306       308       307       306       308
       306       308       309       306       308       310       309       308       310
       308       310       311       308       310       312       308       310       328
       311       310       312       311       310       328       312       310       328
       310       312       313       310       312       314       310       312       315
       313       312       314       313       312       315       314       312       315
       312       315       316       312       315       317       312       315       318
       316       315       317       316       315       318       317       315       318
       315       318       319       315       318       320       315       318       321
       319       318       320       319       318       321       320       318       321
       318       321       322       318       321       323       318       321       324
       322       321       323       322       321       324       323       321       324
       321       324       325       321       324       326       321       324       327
       325       324       326       325       324       327       326       324       327
       310       328       329       310       328       330       329       328       330
       328       330       331       328       330       332       331       330       332
       330       332       333       330       332       334       330       332       352
       333       332       334       333       332       352       334       332       352
       332       334       335       332       334       336       332       334       337
       335       334       336       335       334       337       336       334       337
       334       337       338       334       337       339       334       337       340
       338       337       339       338       337       340       339       337       340
       337       340       341       337       340       342       337       340       343
       341       340       342       341       340       343       342       340       343
       340       343       344       340       343       345       344       343       345
       343       345       346       343       345       349       346       345       349
       345       346       347       345       346       348       347       346       348
       345       349       350       345       349       351       350       349       351
       332       352       353       332       352       354       353       352       354
       352       354       355       352       354       356       355       354       356
       354       356       357       354       356       358       354       356       374
       357       356       358       357       356       374       358       356       374
       356       358       359       356       358       360       356       358       361
       359       358       360       359       358       361       360       358       361
       358       361       362       358       361       363       358       361       364
       362       361       363       362       361       364       363       361       364
       361       364       365       361       364       366       361       364       367
       365       364       366       365       364       367       366       364       367
       364       367       368       364       367       369       364       367       370
       368       367       369       368       367       370       369       367       370
       367       370       371       367       370       372       367       370       373
       371       370       372       371       370       373       372       370       373
       356       374       375       356       374       376       375       374       376
       374       376       377       374       376       378       377       376       378
       376       378       379       376       378       380       376       378       398
       379       378       380       379       378       398       380       378       398
       378       380       381       378       380       382       378       380       383
       381       380       382       381       380       383       382       380       383
       380       383       384       380       383       385       380       383       386
       384       383       385       384       383       386       385       383       386
       383       386       387       383       386       388       383       386       389
       387       386       388       387       386       389       388       386       389
       386       389       390       386       389       391       390       389       391
       389       391       392       389       391       395       392       391       395
       391       392       393       391       392       394       393       392       394
       391       395       396       391       395       397       396       395       397
       378       398       399       378       398       400       399       398       400
       398       400       401       398       400       402       401       400       402
       400       402       403       400       402       404       400       402       415
       403       402       404       403       402       415       404       402       415
       402       404       405       402       404       406       402       404       407
       405       404       406       405       404       407       406       404       407
       404       407       408       404       407       409       404       407       410
       408       407       409       408       407       410       409       407       410
       407       410       411       407       410       412       411       410       412
       410       412       413       410       412       414       413       412       414
       402       415       416       402       415       417       416       415       417
       415       417       418       415       417       419       418       417       419
       417       419       420       417       419       421       417       419       432
       420       419       421       420       419       432       421       419       432
       419       421       422       419       421       423       419       421       424
       422       421       423       422       421       424       423       421       424
       421       424       425       421       424       426       421       424       427
       425       424       426       425       424       427       426       424       427
       424       427       428       424       427       429       428       427       429
       427       429       430       427       429       431       430       429       431
       419       432       433       419       432       434       433       432       434
       432       434       435       432       434       436       435       434       436
       438       437       439       438       437       440       438       437       441
       439       437       440       439       437       441       440       437       441
       437       441       442       437       441       443       437       441       444
       442       441       443       442       441       444       443       441       444
       441       444       445       441       444       446       445       444       446
       444       446       447       444       446       448       447       446       448
       446       448       449       446       448       450       446       448       463
       449       448       450       449       448       463       450       448       463
       448       450       451       448       450       452       448       450       456
       451       450       452       451       450       456       452       450       456
       450       452       453       450       452       454       450       452       455
       453       452       454       453       452       455       454       452       455
       450       456       457       450       456       458       450       456       459
       457       456       458       457       456       459       458       456       459
       456       459       460       456       459       461       456       459       462
       460       459       461       460       459       462       461       459       462
       448       463       464       448       463       465       464       463       465
       463       465       466       463       465       467       466       465       467
       465       467       468       465       467       469       465       467       470
       468       467       469       468       467       470       469       467       470
       467       470       471       467       470       472       471       470       472
       470       472       473       470       472       474       473       472       474
       472       474       475       472       474       476       472       474       480
       475       474       476       475       474       480       476       474       480
       474       476       477       474       476       478       474       476       479
       477       476       478       477       476       479       478       476       479
       474       480       481       474       480       482       481       480       482
       480       482       483       480       482       484       483       482       484
       482       484       485       482       484       486       482       484       496
       485       484       486       485       484       496       486       484       496
       484       486       487       484       486       488       484       486       492
       487       486       488       487       486       492       488       486       492
       486       488       489       486       488       490       486       488       491
       489       488       490       489       488       491       490       488       491
       486       492       493       486       492       494       486       492       495
       493       492       494       493       492       495       494       492       495
       484       496       497       484       496       498       497       496       498
       496       498       499       496       498       500       499       498       500
       498       500       501       498       500       502       498       500       515
       501       500       502       501       500       515       502       500       515
       500       502       503       500       502       504       500       502       505
       503       502       504       503       502       505       504       502       505
       502       505       506       502       505       507       502       505       511
       506       505       507       506       505       511       507       505       511
       505       507       508       505       507       509       505       507       510
       508       507       509       508       507       510       509       507       510
       505       511       512       505       511       513       505       511       514
       512       511       513       512       511       514       513       511       514
       500       515       516       500       515       517       516       515       517
       515       517       518       515       517       519       518       517       519
       517       519       520       517       519       521       517       519       537
       520       519       521       520       519       537       521       519       537
       519       521       522       519       521       523       519       521       524
       522       521       523       522       521       524       523       521       524
       521       524       525       521       524       526       521       524       527
       525       524       526       525       524       527       526       524       527
       524       527       528       524       527       529       524       527       530
       528       527       529       528       527       530       529       527       530
       527       530       531       527       530       532       527       530       533
       531       530       532       531       530       533       532       530       533
       530       533       534       530       533       535       530       533       536
       534       533       535       534       533       536       535       533       536
       519       537       538       519       537       539       538       537       539
       537       539       540       537       539       541       540       539       541
       539       541       542       539       541       543       539       541       553
       542       541       543       542       541       553       543       541       553
       541       543       544       541       543       545       541       543       549
       544       543       545       544       543       549       545       543       549
       543       545       546       543       545       547       543       545       548
       546       545       547       546       545       548       547       545       548
       543       549       550       543       549       551       543       549       552
       550       549       551       550       549       552       551       549       552
       541       553       554       541       553       555       554       553       555
       553       555       556       553       555       557       556       555       557
       555       557       558       555       557       559       555       557       572
       558       557       559       558       557       572       559       557       572
       557       559       560       557       559       561       557       559       562
       560       559       561       560       559       562       561       559       562
       559       562       563       559       562       564       559       562       568
       563       562       564       563       562       568       564       562       568
       562       564       565       562       564       566       562       564       567
       565       564       566       565       564       567       566       564       567
       562       568       569       562       568       570       562       568       571
       569       568       570       569       568       571       570       568       571
       557       572       573       557       572       574       573       572       574
       572       574       575       572       574       576       575       574       576
       574       576       577       574       576       578       574       576       586
       577       576       578       577       576       586       578       576       586
       576       578       579       576       578       580       576       578       582
       579       578       580       579       578       582       580       578       582
       578       580       581       578       582       583       578       582       584
       578       582       585       583       582       584       583       582       585
       584       582       585       576       586       587       576       586       588
       587       586       588       586       588       589       586       588       590
       589       588       590       588       590       591       588       590       592
       588       590       600       591       590       592       591       590       600
       592       590       600       590       592       593       590       592       594
       590       592       596       593       592       594       593       592       596
       594       592       596       592       594       595       592       596       597
       592       596       598       592       596       599       597       596       598
       597       596       599       598       596       599       590       600       601
       590       600       602       601       600       602       600       602       603
       600       602       604       603       602       604       602       604       605
       602       604       606       602       604       607       605       604       606
       605       604       607       606       604       607       604       607       608
       604       607       609       608       607       609       607       609       610
       607       609       611       610       609       611       609       611       612
       609       611       613       609       611       626       612       611       613
       612       611       626       613       611       626       611       613       614
       611       613       615       611       613       616       614       613       615
       614       613       616       615       613       616       613       616       617
       613       616       618       613       616       622       617       616       618
       617       616       622       618       616       622       616       618       619
       616       618       620       616       618       621       619       618       620
       619       618       621       620       618       621       616       622       623
       616       622       624       616       622       625       623       622       624
       623       622       625       624       622       625       611       626       627
       611       626       628       627       626       628       626       628       629
       626       628       632       629       628       632       628       629       630
       628       629       631       628       629       637       630       629       631
       630       629       637       631       629       637       628       632       633
       628       632       634       628       632       640       633       632       634
       633       632       640       634       632       640       632       634       635
       632       634       636       632       634       637       635       634       636
       635       634       637       636       634       637       629       637       634
       629       637       638       629       637       639       634       637       638
       634       637       639       638       637       639       632       640       641
       632       640       642       641       640       642       640       642       643
       640       642       644       643       642       644       642       644       645
       642       644       646       642       644       650       645       644       646
       645       644       650       646       644       650       644       646       647
       644       646       648       644       646       649       647       646       648
       647       646       649       648       646       649       644       650       651
       644       650       652       651       650       652       650       652       653
       650       652       654       653       652       654       652       654       655
       652       654       656       652       654       669       655       654       656
       655       654       669       656       654       669       654       656       657
       654       656       658       654       656       659       657       656       658
       657       656       659       658       656       659       656       659       660
       656       659       661       656       659       665       660       659       661
       660       659       665       661       659       665       659       661       662
       659       661       663       659       661       664       662       661       663
       662       661       664       663       661       664       659       665       666
       659       665       667       659       665       668       666       665       667
       666       665       668       667       665       668       654       669       670
       654       669       671       670       669       671       669       671       672
       669       671       673       672       671       673       671       673       674
       671       673       675       671       673       688       674       673       675
       674       673       688       675       673       688       673       675       676
       673       675       677       673       675       681       676       675       677
       676       675       681       677       675       681       675       677       678
       675       677       679       675       677       680       678       677       679
       678       677       680       679       677       680       675       681       682
       675       681       683       675       681       684       682       681       683
       682       681       684       683       681       684       681       684       685
       681       684       686       681       684       687       685       684       686
       685       684       687       686       684       687       673       688       689
       673       688       690       689       688       690       688       690       691
       688       690       692       691       690       692       690       692       693
       690       692       694       690       692       699       693       692       694
       693       692       699       694       692       699       692       694       695
       692       694       696       692       694       697       695       694       696
       695       694       697       696       694       697       694       697       698
       692       699       700       692       699       701       700       699       701
       699       701       702       699       701       703       702       701       703
       701       703       704       701       703       705       701       703       723
       704       703       705       704       703       723       705       703       723
       703       705       706       703       705       707       703       705       708
       706       705       707       706       705       708       707       705       708
       705       708       709       705       708       714       709       708       714
       708       709       710       708       709       711       710       709       711
       709       711       712       709       711       713       712       711       713
       711       713       714       711       713       719       714       713       719
       708       714       713       708       714       715       713       714       715
       714       715       716       714       715       717       716       715       717
       715       717       718       715       717       721       718       717       721
       713       719       720       713       719       721       720       719       721
       717       721       719       717       721       722       719       721       722
       703       723       724       703       723       725       724       723       725
       723       725       726       723       725       727       726       725       727
       725       727       728       725       727       729       725       727       742
       728       727       729       728       727       742       729       727       742
       727       729       730       727       729       731       727       729       735
       730       729       731       730       729       735       731       729       735
       729       731       732       729       731       733       729       731       734
       732       731       733       732       731       734       733       731       734
       729       735       736       729       735       737       729       735       738
       736       735       737       736       735       738       737       735       738
       735       738       739       735       738       740       735       738       741
       739       738       740       739       738       741       740       738       741
       727       742       743       727       742       744       743       742       744
       742       744       745       742       744       746       745       744       746
       744       746       747       744       746       748       744       746       764
       747       746       748       747       746       764       748       746       764
       746       748       749       746       748       750       746       748       751
       749       748       750       749       748       751       750       748       751
       748       751       752       748       751       753       748       751       754
       752       751       753       752       751       754       753       751       754
       751       754       755       751       754       756       751       754       757
       755       754       756       755       754       757       756       754       757
       754       757       758       754       757       759       754       757       760
       758       757       759       758       757       760       759       757       760
       757       760       761       757       760       762       757       760       763
       761       760       762       761       760       763       762       760       763
       746       764       765       746       764       766       765       764       766
       764       766       767       764       766       768       767       766       768
       766       768       769       766       768       770       766       768       788
       769       768       770       769       768       788       770       768       788
       768       770       771       768       770       772       768       770       773
       771       770       772       771       770       773       772       770       773
       770       773       774       770       773       775       770       773       776
       774       773       775       774       773       776       775       773       776
       773       776       777       773       776       778       773       776       779
       777       776       778       777       776       779       778       776       779
       776       779       780       776       779       781       780       779       781
       779       781       782       779       781       785       782       781       785
       781       782       783       781       782       784       783       782       784
       781       785       786       781       785       787       786       785       787
       768       788       789       768       788       790       789       788       790
       788       790       791       788       790       792       791       790       792
       790       792       793       790       792       794       790       792       810
       793       792       794       793       792       810       794       792       810
       792       794       795       792       794       796       792       794       797
       795       794       796       795       794       797       796       794       797
       794       797       798       794       797       799       794       797       800
       798       797       799       798       797       800       799       797       800
       797       800       801       797       800       802       797       800       803
       801       800       802       801       800       803       802       800       803
       800       803       804       800       803       805       800       803       806
       804       803       805       804       803       806       805       803       806
       803       806       807       803       806       808       803       806       809
       807       806       808       807       806       809       808       806       809
       792       810       811       792       810       812       811       810       812
       810       812       813       810       812       814       813       812       814
       812       814       815       812       814       816       812       814       834
       815       814       816       815       814       834       816       814       834
       814       816       817       814       816       818       814       816       819
       817       816       818       817       816       819       818       816       819
       816       819       820       816       819       821       816       819       822
       820       819       821       820       819       822       821       819       822
       819       822       823       819       822       824       819       822       825
       823       822       824       823       822       825       824       822       825
       822       825       826       822       825       827       826       825       827
       825       827       828       825       827       831       828       827       831
       827       828       829       827       828       830       829       828       830
       827       831       832       827       831       833       832       831       833
       814       834       835       814       834       836       835       834       836
       834       836       837       834       836       838       837       836       838
       836       838       839       836       838       840       836       838       851
       839       838       840       839       838       851       840       838       851
       838       840       841       838       840       842       838       840       843
       841       840       842       841       840       843       842       840       843
       840       843       844       840       843       845       840       843       846
       844       843       845       844       843       846       845       843       846
       843       846       847       843       846       848       847       846       848
       846       848       849       846       848       850       849       848       850
       838       851       852       838       851       853       852       851       853
       851       853       854       851       853       855       854       853       855
       853       855       856       853       855       857       853       855       868
       856       855       857       856       855       868       857       855       868
       855       857       858       855       857       859       855       857       860
       858       857       859       858       857       860       859       857       860
       857       860       861       857       860       862       857       860       863
       861       860       862       861       860       863       862       860       863
       860       863       864       860       863       865       864       863       865
       863       865       866       863       865       867       866       865       867
       855       868       869       855       868       870       869       868       870
       868       870       871       868       870       872       871       870       872

      2332 !NPHI: dihedrals
         1         5         8         9         1         5         8        10
         2         1         5         6         2         1         5         7
         2         1         5         8         3         1         5         6
         3         1         5         7         3         1         5         8
         4         1         5         6         4         1         5         7
         4         1         5         8         5         8        10        11
         5         8        10        12         6         5         8         9
         6         5         8        10         7         5         8         9
         7         5         8        10         8        10        12        13
         8        10        12        14         8        10        12        27
         9         8        10        11         9         8        10        12
        10        12        14        15        10        12        14        16
        10        12        14        20        10        12        27        28
        10        12        27        29        11        10        12        13
        11        10        12        14        11        10        12        27
        12        14        16        17        12        14        16        18
        12        14        16        19        12        14        20        21
        12        14        20        22        12        14        20        23
        12        27        29        30        12        27        29        31
        13        12        14        15        13        12        14        16
        13        12        14        20        13        12        27        28
        13        12        27        29        14        12        27        28
        14        12        27        29        14        20        23        24
        14        20        23        25        14        20        23        26
        15        14        12        27        15        14        16        17
        15        14        16        18        15        14        16        19
        15        14        20        21        15        14        20        22
        15        14        20        23        16        14        12        27
        16        14        20        21        16        14        20        22
        16        14        20        23        17        16        14        20
        18        16        14        20        19        16        14        20
        20        14        12        27        21        20        23        24
        21        20        23        25        21        20        23        26
        22        20        23        24        22        20        23        25
        22        20        23        26        27        29        31        32
        27        29        31        33        27        29        31        34
        28        27        29        30        28        27        29        31
        29        31        34        35        29        31        34        36
        30        29        31        32        30        29        31        33
        30        29        31        34        31        34        36        37
        31        34        36        38        32        31        34        35
        32        31        34        36        33        31        34        35
        33        31        34        36        34        36        38        39
        34        36        38        40        34        36        38        44
        35        34        36        37        35        34        36        38
        36        38        40        41        36        38        40        42
        36        38        40        43        36        38        44        45
        36        38        44        46        37        36        38        39
        37        36        38        40        37        36        38        44
        38        44        46        47        38        44        46        48
        39        38        40        41        39        38        40        42
        39        38        40        43        39        38        44        45
        39        38        44        46        40        38        44        45
        40        38        44        46        41        40        38        44
        42        40        38        44        43        40        38        44
        44        46        48        49        44        46        48        50
        44        46        48        60        45        44        46        47
        45        44        46        48        46        48        50        51
        46        48        50        52        46        48        50        56
        46        48        60        61        46        48        60        62
        47        46        48        49        47        46        48        50
        47        46        48        60        48        50        52        53
        48        50        52        54        48        50        52        55
        48        50        56        57        48        50        56        58
        48        50        56        59        48        60        62        63
        48        60        62        64        49        48        50        51
        49        48        50        52        49        48        50        56
        49        48        60        61        49        48        60        62
        50        48        60        61        50        48        60        62
        51        50        48        60        51        50        52        53
        51        50        52        54        51        50        52        55
        51        50        56        57        51        50        56        58
        51        50        56        59        52        50        48        60
        52        50        56        57        52        50        56        58
        52        50        56        59        53        52        50        56
        54        52        50        56        55        52        50        56
        56        50        48        60        60        62        64        65
        60        62        64        66        60        62        64        79
        61        60        62        63        61        60        62        64
        62        64        66        67        62        64        66        68
        62        64        66        69        62        64        79        80
        62        64        79        81        63        62        64        65
        63        62        64        66        63        62        64        79
        64        66        69        70        64        66        69        71
        64        66        69        75        64        79        81        82
        64        79        81        83        65        64        66        67
        65        64        66        68        65        64        66        69
        65        64        79        80        65        64        79        81
        66        64        79        80        66        64        79        81
        66        69        71        72        66        69        71        73
        66        69        71        74        66        69        75        76
        66        69        75        77        66        69        75        78
        67        66        64        79        67        66        69        70
        67        66        69        71        67        66        69        75
        68        66        64        79        68        66        69        70
        68        66        69        71        68        66        69        75
        69        66        64        79        70        69        71        72
        70        69        71        73        70        69        71        74
        70        69        75        76        70        69        75        77
        70        69        75        78        71        69        75        76
        71        69        75        77        71        69        75        78
        72        71        69        75        73        71        69        75
        74        71        69        75        79        81        83        84
        79        81        83        85        79        81        83       101
        80        79        81        82        80        79        81        83
        81        83        85        86        81        83        85        87
        81        83        85        88        81        83       101       102
        81        83       101       103        82        81        83        84
        82        81        83        85        82        81        83       101
        83        85        88        89        83        85        88        90
        83        85        88        91        83       101       103       104
        83       101       103       105        84        83        85        86
        84        83        85        87        84        83        85        88
        84        83       101       102        84        83       101       103
        85        83       101       102        85        83       101       103
        85        88        91        92        85        88        91        93
        85        88        91        94        86        85        83       101
        86        85        88        89        86        85        88        90
        86        85        88        91        87        85        83       101
        87        85        88        89        87        85        88        90
        87        85        88        91        88        85        83       101
        88        91        94        95        88        91        94        96
        88        91        94        97        89        88        91        92
        89        88        91        93        89        88        91        94
        90        88        91        92        90        88        91        93
        90        88        91        94        91        94        97        98
        91        94        97        99        91        94        97       100
        92        91        94        95        92        91        94        96
        92        91        94        97        93        91        94        95
        93        91        94        96        93        91        94        97
        95        94        97        98        95        94        97        99
        95        94        97       100        96        94        97        98
        96        94        97        99        96        94        97       100
       101       103       105       106       101       103       105       107
       101       103       105       117       102       101       103       104
       102       101       103       105       103       105       107       108
       103       105       107       109       103       105       107       113
       103       105       117       118       103       105       117       119
       104       103       105       106       104       103       105       107
       104       103       105       117       105       107       109       110
       105       107       109       111       105       107       109       112
       105       107       113       114       105       107       113       115
       105       107       113       116       105       117       119       120
       105       117       119       121       106       105       107       108
       106       105       107       109       106       105       107       113
       106       105       117       118       106       105       117       119
       107       105       117       118       107       105       117       119
       108       107       105       117       108       107       109       110
       108       107       109       111       108       107       109       112
       108       107       113       114       108       107       113       115
       108       107       113       116       109       107       105       117
       109       107       113       114       109       107       113       115
       109       107       113       116       110       109       107       113
       111       109       107       113       112       109       107       113
       113       107       105       117       117       119       121       122
       117       119       121       123       117       119       121       136
       118       117       119       120       118       117       119       121
       119       121       123       124       119       121       123       125
       119       121       123       126       119       121       136       137
       119       121       136       138       120       119       121       122
       120       119       121       123       120       119       121       136
       121       123       126       127       121       123       126       128
       121       123       126       132       121       136       138       139
       121       136       138       140       122       121       123       124
       122       121       123       125       122       121       123       126
       122       121       136       137       122       121       136       138
       123       121       136       137       123       121       136       138
       123       126       128       129       123       126       128       130
       123       126       128       131       123       126       132       133
       123       126       132       134       123       126       132       135
       124       123       121       136       124       123       126       127
       124       123       126       128       124       123       126       132
       125       123       121       136       125       123       126       127
       125       123       126       128       125       123       126       132
       126       123       121       136       127       126       128       129
       127       126       128       130       127       126       128       131
       127       126       132       133       127       126       132       134
       127       126       132       135       128       126       132       133
       128       126       132       134       128       126       132       135
       129       128       126       132       130       128       126       132
       131       128       126       132       136       138       140       141
       136       138       140       142       136       138       140       150
       137       136       138       139       137       136       138       140
       138       140       142       143       138       140       142       144
       138       140       142       146       138       140       150       151
       138       140       150       152       139       138       140       141
       139       138       140       142       139       138       140       150
       140       142       144       145       140       142       146       147
       140       142       146       148       140       142       146       149
       140       150       152       153       140       150       152       154
       141       140       142       143       141       140       142       144
       141       140       142       146       141       140       150       151
       141       140       150       152       142       140       150       151
       142       140       150       152       143       142       140       150
       143       142       144       145       143       142       146       147
       143       142       146       148       143       142       146       149
       144       142       140       150       144       142       146       147
       144       142       146       148       144       142       146       149
       145       144       142       146       146       142       140       150
       150       152       154       155       150       152       154       156
       150       152       154       164       151       150       152       153
       151       150       152       154       152       154       156       157
       152       154       156       158       152       154       156       160
       152       154       164       165       152       154       164       166
       153       152       154       155       153       152       154       156
       153       152       154       164       154       156       158       159
       154       156       160       161       154       156       160       162
       154       156       160       163       154       164       166       167
       154       164       166       168       155       154       156       157
       155       154       156       158       155       154       156       160
       155       154       164       165       155       154       164       166
       156       154       164       165       156       154       164       166
       157       156       154       164       157       156       158       159
       157       156       160       161       157       156       160       162
       157       156       160       163       158       156       154       164
       158       156       160       161       158       156       160       162
       158       156       160       163       159       158       156       160
       160       156       154       164       164       166       168       169
       164       166       168       170       164       166       168       171
       165       164       166       167       165       164       166       168
       166       168       171       172       166       168       171       173
       167       166       168       169       167       166       168       170
       167       166       168       171       168       171       173       174
       168       171       173       175       169       168       171       172
       169       168       171       173       170       168       171       172
       170       168       171       173       171       173       175       176
       171       173       175       177       171       173       175       190
       172       171       173       174       172       171       173       175
       173       175       177       178       173       175       177       179
       173       175       177       180       173       175       190       191
       173       175       190       192       174       173       175       176
       174       173       175       177       174       173       175       190
       175       177       180       181       175       177       180       182
       175       177       180       186       175       190       192       193
       175       190       192       196       176       175       177       178
       176       175       177       179       176       175       177       180
       176       175       190       191       176       175       190       192
       177       175       190       191       177       175       190       192
       177       180       182       183       177       180       182       184
       177       180       182       185       177       180       186       187
       177       180       186       188       177       180       186       189
       178       177       175       190       178       177       180       181
       178       177       180       182       178       177       180       186
       179       177       175       190       179       177       180       181
       179       177       180       182       179       177       180       186
       180       177       175       190       181       180       182       183
       181       180       182       184       181       180       182       185
       181       180       186       187       181       180       186       188
       181       180       186       189       182       180       186       187
       182       180       186       188       182       180       186       189
       183       182       180       186       184       182       180       186
       185       182       180       186       190       192       193       194
       190       192       193       195       190       192       193       201
       190       192       196       197       190       192       196       198
       190       192       196       204       191       190       192       193
       191       190       192       196       192       193       201       198
       192       193       201       202       192       193       201       203
       192       196       198       199       192       196       198       200
       192       196       198       201       192       196       204       205
       192       196       204       206       193       192       196       197
       193       192       196       198       193       192       196       204
       193       201       198       196       193       201       198       199
       193       201       198       200       194       193       192       196
       194       193       201       198       194       193       201       202
       194       193       201       203       195       193       192       196
       195       193       201       198       195       193       201       202
       195       193       201       203       196       192       193       201
       196       198       201       202       196       198       201       203
       196       204       206       207       196       204       206       208
       197       196       198       199       197       196       198       200
       197       196       198       201       197       196       204       205
       197       196       204       206       198       196       204       205
       198       196       204       206       199       198       196       204
       199       198       201       202       199       198       201       203
       200       198       196       204       200       198       201       202
       200       198       201       203       201       198       196       204
       204       206       208       209       204       206       208       210
       204       206       208       214       205       204       206       207
       205       204       206       208       206       208       210       211
       206       208       210       212       206       208       210       213
       206       208       214       215       206       208       214       216
       207       206       208       209       207       206       208       210
       207       206       208       214       208       214       216       217
       208       214       216       218       209       208       210       211
       209       208       210       212       209       208       210       213
       209       208       214       215       209       208       214       216
       210       208       214       215       210       208       214       216
       211       210       208       214       212       210       208       214
       213       210       208       214       214       216       218       219
       214       216       218       220       214       216       218       233
       215       214       216       217       215       214       216       218
       216       218       220       221       216       218       220       222
       216       218       220       223       216       218       233       234
       216       218       233       235       217       216       218       219
       217       216       218       220       217       216       218       233
       218       220       223       224       218       220       223       225
       218       220       223       229       218       233       235       236
       218       233       235       237       219       218       220       221
       219       218       220       222       219       218       220       223
       219       218       233       234       219       218       233       235
       220       218       233       234       220       218       233       235
       220       223       225       226       220       223       225       227
       220       223       225       228       220       223       229       230
       220       223       229       231       220       223       229       232
       221       220       218       233       221       220       223       224
       221       220       223       225       221       220       223       229
       222       220       218       233       222       220       223       224
       222       220       223       225       222       220       223       229
       223       220       218       233       224       223       225       226
       224       223       225       227       224       223       225       228
       224       223       229       230       224       223       229       231
       224       223       229       232       225       223       229       230
       225       223       229       231       225       223       229       232
       226       225       223       229       227       225       223       229
       228       225       223       229       233       235       237       238
       233       235       237       239       233       235       237       252
       234       233       235       236       234       233       235       237
       235       237       239       240       235       237       239       241
       235       237       239       245       235       237       252       253
       235       237       252       254       236       235       237       238
       236       235       237       239       236       235       237       252
       237       239       241       242       237       239       241       243
       237       239       241       244       237       239       245       246
       237       239       245       247       237       239       245       248
       237       252       254       255       237       252       254       256
       238       237       239       240       238       237       239       241
       238       237       239       245       238       237       252       253
       238       237       252       254       239       237       252       253
       239       237       252       254       239       245       248       249
       239       245       248       250       239       245       248       251
       240       239       237       252       240       239       241       242
       240       239       241       243       240       239       241       244
       240       239       245       246       240       239       245       247
       240       239       245       248       241       239       237       252
       241       239       245       246       241       239       245       247
       241       239       245       248       242       241       239       245
       243       241       239       245       244       241       239       245
       245       239       237       252       246       245       248       249
       246       245       248       250       246       245       248       251
       247       245       248       249       247       245       248       250
       247       245       248       251       252       254       256       257
       252       254       256       258       252       254       256       263
       253       252       254       255       253       252       254       256
       254       256       258       259       254       256       258       260
       254       256       258       261       254       256       263       264
       254       256       263       265       255       254       256       257
       255       254       256       258       255       254       256       263
       256       258       261       262       256       263       265       266
       256       263       265       267       257       256       258       259
       257       256       258       260       257       256       258       261
       257       256       263       264       257       256       263       265
       258       256       263       264       258       256       263       265
       259       258       256       263       259       258       261       262
       260       258       256       263       260       258       261       262
       261       258       256       263       263       265       267       268
       263       265       267       269       263       265       267       287
       264       263       265       266       264       263       265       267
       265       267       269       270       265       267       269       271
       265       267       269       272       265       267       287       288
       265       267       287       289       266       265       267       268
       266       265       267       269       266       265       267       287
       267       269       272       273       267       269       272       278
       267       287       289       290       267       287       289       291
       268       267       269       270       268       267       269       271
       268       267       269       272       268       267       287       288
       268       267       287       289       269       267       287       288
       269       267       287       289       269       272       273       274
       269       272       273       275       269       272       278       277
       269       272       278       279       270       269       267       287
       270       269       272       273       270       269       272       278
       271       269       267       287       271       269       272       273
       271       269       272       278       272       269       267       287
       272       273       275       276       272       273       275       277
       272       278       277       275       272       278       277       283
       272       278       279       280       272       278       279       281
       273       272       278       277       273       272       278       279
       273       275       277       278       273       275       277       283
       274       273       272       278       274       273       275       276
       274       273       275       277       275       273       272       278
       275       277       278       279       275       277       283       284
       275       277       283       285       276       275       277       278
       276       275       277       283       277       278       279       280
       277       278       279       281       277       283       285       281
       277       283       285       286       278       277       283       284
       278       277       283       285       278       279       281       282
       278       279       281       285       279       278       277       283
       279       281       285       283       279       281       285       286
       280       279       281       282       280       279       281       285
       281       285       283       284       282       281       285       283
       282       281       285       286       284       283       285       286
       287       289       291       292       287       289       291       293
       287       289       291       306       288       287       289       290
       288       287       289       291       289       291       293       294
       289       291       293       295       289       291       293       299
       289       291       306       307       289       291       306       308
       290       289       291       292       290       289       291       293
       290       289       291       306       291       293       295       296
       291       293       295       297       291       293       295       298
       291       293       299       300       291       293       299       301
       291       293       299       302       291       306       308       309
       291       306       308       310       292       291       293       294
       292       291       293       295       292       291       293       299
       292       291       306       307       292       291       306       308
       293       291       306       307       293       291       306       308
       293       299       302       303       293       299       302       304
       293       299       302       305       294       293       291       306
       294       293       295       296       294       293       295       297
       294       293       295       298       294       293       299       300
       294       293       299       301       294       293       299       302
       295       293       291       306       295       293       299       300
       295       293       299       301       295       293       299       302
       296       295       293       299       297       295       293       299
       298       295       293       299       299       293       291       306
       300       299       302       303       300       299       302       304
       300       299       302       305       301       299       302       303
       301       299       302       304       301       299       302       305
       306       308       310       311       306       308       310       312
       306       308       310       328       307       306       308       309
       307       306       308       310       308       310       312       313
       308       310       312       314       308       310       312       315
       308       310       328       329       308       310       328       330
       309       308       310       311       309       308       310       312
       309       308       310       328       310       312       315       316
       310       312       315       317       310       312       315       318
       310       328       330       331       310       328       330       332
       311       310       312       313       311       310       312       314
       311       310       312       315       311       310       328       329
       311       310       328       330       312       310       328       329
       312       310       328       330       312       315       318       319
       312       315       318       320       312       315       318       321
       313       312       310       328       313       312       315       316
       313       312       315       317       313       312       315       318
       314       312       310       328       314       312       315       316
       314       312       315       317       314       312       315       318
       315       312       310       328       315       318       321       322
       315       318       321       323       315       318       321       324
       316       315       318       319       316       315       318       320
       316       315       318       321       317       315       318       319
       317       315       318       320       317       315       318       321
       318       321       324       325       318       321       324       326
       318       321       324       327       319       318       321       322
       319       318       321       323       319       318       321       324
       320       318       321       322       320       318       321       323
       320       318       321       324       322       321       324       325
       322       321       324       326       322       321       324       327
       323       321       324       325       323       321       324       326
       323       321       324       327       328       330       332       333
       328       330       332       334       328       330       332       352
       329       328       330       331       329       328       330       332
       330       332       334       335       330       332       334       336
       330       332       334       337       330       332       352       353
       330       332       352       354       331       330       332       333
       331       330       332       334       331       330       332       352
       332       334       337       338       332       334       337       339
       332       334       337       340       332       352       354       355
       332       352       354       356       333       332       334       335
       333       332       334       336       333       332       334       337
       333       332       352       353       333       332       352       354
       334       332       352       353       334       332       352       354
       334       337       340       341       334       337       340       342
       334       337       340       343       335       334       332       352
       335       334       337       338       335       334       337       339
       335       334       337       340       336       334       332       352
       336       334       337       338       336       334       337       339
       336       334       337       340       337       334       332       352
       337       340       343       344       337       340       343       345
       338       337       340       341       338       337       340       342
       338       337       340       343       339       337       340       341
       339       337       340       342       339       337       340       343
       340       343       345       346       340       343       345       349
       341       340       343       344       341       340       343       345
       342       340       343       344       342       340       343       345
       343       345       346       347       343       345       346       348
       343       345       349       350       343       345       349       351
       344       343       345       346       344       343       345       349
       346       345       349       350       346       345       349       351
       347       346       345       349       348       346       345       349
       352       354       356       357       352       354       356       358
       352       354       356       374       353       352       354       355
       353       352       354       356       354       356       358       359
       354       356       358       360       354       356       358       361
       354       356       374       375       354       356       374       376
       355       354       356       357       355       354       356       358
       355       354       356       374       356       358       361       362
       356       358       361       363       356       358       361       364
       356       374       376       377       356       374       376       378
       357       356       358       359       357       356       358       360
       357       356       358       361       357       356       374       375
       357       356       374       376       358       356       374       375
       358       356       374       376       358       361       364       365
       358       361       364       366       358       361       364       367
       359       358       356       374       359       358       361       362
       359       358       361       363       359       358       361       364
       360       358       356       374       360       358       361       362
       360       358       361       363       360       358       361       364
       361       358       356       374       361       364       367       368
       361       364       367       369       361       364       367       370
       362       361       364       365       362       361       364       366
       362       361       364       367       363       361       364       365
       363       361       364       366       363       361       364       367
       364       367       370       371       364       367       370       372
       364       367       370       373       365       364       367       368
       365       364       367       369       365       364       367       370
       366       364       367       368       366       364       367       369
       366       364       367       370       368       367       370       371
       368       367       370       372       368       367       370       373
       369       367       370       371       369       367       370       372
       369       367       370       373       374       376       378       379
       374       376       378       380       374       376       378       398
       375       374       376       377       375       374       376       378
       376       378       380       381       376       378       380       382
       376       378       380       383       376       378       398       399
       376       378       398       400       377       376       378       379
       377       376       378       380       377       376       378       398
       378       380       383       384       378       380       383       385
       378       380       383       386       378       398       400       401
       378       398       400       402       379       378       380       381
       379       378       380       382       379       378       380       383
       379       378       398       399       379       378       398       400
       380       378       398       399       380       378       398       400
       380       383       386       387       380       383       386       388
       380       383       386       389       381       380       378       398
       381       380       383       384       381       380       383       385
       381       380       383       386       382       380       378       398
       382       380       383       384       382       380       383       385
       382       380       383       386       383       380       378       398
       383       386       389       390       383       386       389       391
       384       383       386       387       384       383       386       388
       384       383       386       389       385       383       386       387
       385       383       386       388       385       383       386       389
       386       389       391       392       386       389       391       395
       387       386       389       390       387       386       389       391
       388       386       389       390       388       386       389       391
       389       391       392       393       389       391       392       394
       389       391       395       396       389       391       395       397
       390       389       391       392       390       389       391       395
       392       391       395       396       392       391       395       397
       393       392       391       395       394       392       391       395
       398       400       402       403       398       400       402       404
       398       400       402       415       399       398       400       401
       399       398       400       402       400       402       404       405
       400       402       404       406       400       402       404       407
       400       402       415       416       400       402       415       417
       401       400       402       403       401       400       402       404
       401       400       402       415       402       404       407       408
       402       404       407       409       402       404       407       410
       402       415       417       418       402       415       417       419
       403       402       404       405       403       402       404       406
       403       402       404       407       403       402       415       416
       403       402       415       417       404       402       415       416
       404       402       415       417       404       407       410       411
       404       407       410       412       405       404       402       415
       405       404       407       408       405       404       407       409
       405       404       407       410       406       404       402       415
       406       404       407       408       406       404       407       409
       406       404       407       410       407       404       402       415
       407       410       412       413       407       410       412       414
       408       407       410       411       408       407       410       412
       409       407       410       411       409       407       410       412
       411       410       412       413       411       410       412       414
       415       417       419       420       415       417       419       421
       415       417       419       432       416       415       417       418
       416       415       417       419       417       419       421       422
       417       419       421       423       417       419       421       424
       417       419       432       433       417       419       432       434
       418       417       419       420       418       417       419       421
       418       417       419       432       419       421       424       425
       419       421       424       426       419       421       424       427
       419       432       434       435       419       432       434       436
       420       419       421       422       420       419       421       423
       420       419       421       424       420       419       432       433
       420       419       432       434       421       419       432       433
       421       419       432       434       421       424       427       428
       421       424       427       429       422       421       419       432
       422       421       424       425       422       421       424       426
       422       421       424       427       423       421       419       432
       423       421       424       425       423       421       424       426
       423       421       424       427       424       421       419       432
       424       427       429       430       424       427       429       431
       425       424       427       428       425       424       427       429
       426       424       427       428       426       424       427       429
       428       427       429       430       428       427       429       431
       433       432       434       435       433       432       434       436
       437       441       444       445       437       441       444       446
       438       437       441       442       438       437       441       443
       438       437       441       444       439       437       441       442
       439       437       441       443       439       437       441       444
       440       437       441       442       440       437       441       443
       440       437       441       444       441       444       446       447
       441       444       446       448       442       441       444       445
       442       441       444       446       443       441       444       445
       443       441       444       446       444       446       448       449
       444       446       448       450       444       446       448       463
       445       444       446       447       445       444       446       448
       446       448       450       451       446       448       450       452
       446       448       450       456       446       448       463       464
       446       448       463       465       447       446       448       449
       447       446       448       450       447       446       448       463
       448       450       452       453       448       450       452       454
       448       450       452       455       448       450       456       457
       448       450       456       458       448       450       456       459
       448       463       465       466       448       463       465       467
       449       448       450       451       449       448       450       452
       449       448       450       456       449       448       463       464
       449       448       463       465       450       448       463       464
       450       448       463       465       450       456       459       460
       450       456       459       461       450       456       459       462
       451       450       448       463       451       450       452       453
       451       450       452       454       451       450       452       455
       451       450       456       457       451       450       456       458
       451       450       456       459       452       450       448       463
       452       450       456       457       452       450       456       458
       452       450       456       459       453       452       450       456
       454       452       450       456       455       452       450       456
       456       450       448       463       457       456       459       460
       457       456       459       461       457       456       459       462
       458       456       459       460       458       456       459       461
       458       456       459       462       463       465       467       468
       463       465       467       469       463       465       467       470
       464       463       465       466       464       463       465       467
       465       467       470       471       465       467       470       472
       466       465       467       468       466       465       467       469
       466       465       467       470       467       470       472       473
       467       470       472       474       468       467       470       471
       468       467       470       472       469       467       470       471
       469       467       470       472       470       472       474       475
       470       472       474       476       470       472       474       480
       471       470       472       473       471       470       472       474
       472       474       476       477       472       474       476       478
       472       474       476       479       472       474       480       481
       472       474       480       482       473       472       474       475
       473       472       474       476       473       472       474       480
       474       480       482       483       474       480       482       484
       475       474       476       477       475       474       476       478
       475       474       476       479       475       474       480       481
       475       474       480       482       476       474       480       481
       476       474       480       482       477       476       474       480
       478       476       474       480       479       476       474       480
       480       482       484       485       480       482       484       486
       480       482       484       496       481       480       482       483
       481       480       482       484       482       484       486       487
       482       484       486       488       482       484       486       492
       482       484       496       497       482       484       496       498
       483       482       484       485       483       482       484       486
       483       482       484       496       484       486       488       489
       484       486       488       490       484       486       488       491
       484       486       492       493       484       486       492       494
       484       486       492       495       484       496       498       499
       484       496       498       500       485       484       486       487
       485       484       486       488       485       484       486       492
       485       484       496       497       485       484       496       498
       486       484       496       497       486       484       496       498
       487       486       484       496       487       486       488       489
       487       486       488       490       487       486       488       491
       487       486       492       493       487       486       492       494
       487       486       492       495       488       486       484       496
       488       486       492       493       488       486       492       494
       488       486       492       495       489       488       486       492
       490       488       486       492       491       488       486       492
       492       486       484       496       496       498       500       501
       496       498       500       502       496       498       500       515
       497       496       498       499       497       496       498       500
       498       500       502       503       498       500       502       504
       498       500       502       505       498       500       515       516
       498       500       515       517       499       498       500       501
       499       498       500       502       499       498       500       515
       500       502       505       506       500       502       505       507
       500       502       505       511       500       515       517       518
       500       515       517       519       501       500       502       503
       501       500       502       504       501       500       502       505
       501       500       515       516       501       500       515       517
       502       500       515       516       502       500       515       517
       502       505       507       508       502       505       507       509
       502       505       507       510       502       505       511       512
       502       505       511       513       502       505       511       514
       503       502       500       515       503       502       505       506
       503       502       505       507       503       502       505       511
       504       502       500       515       504       502       505       506
       504       502       505       507       504       502       505       511
       505       502       500       515       506       505       507       508
       506       505       507       509       506       505       507       510
       506       505       511       512       506       505       511       513
       506       505       511       514       507       505       511       512
       507       505       511       513       507       505       511       514
       508       507       505       511       509       507       505       511
       510       507       505       511       515       517       519       520
       515       517       519       521       515       517       519       537
       516       515       517       518       516       515       517       519
       517       519       521       522       517       519       521       523
       517       519       521       524       517       519       537       538
       517       519       537       539       518       517       519       520
       518       517       519       521       518       517       519       537
       519       521       524       525       519       521       524       526
       519       521       524       527       519       537       539       540
       519       537       539       541       520       519       521       522
       520       519       521       523       520       519       521       524
       520       519       537       538       520       519       537       539
       521       519       537       538       521       519       537       539
       521       524       527       528       521       524       527       529
       521       524       527       530       522       521       519       537
       522       521       524       525       522       521       524       526
       522       521       524       527       523       521       519       537
       523       521       524       525       523       521       524       526
       523       521       524       527       524       521       519       537
       524       527       530       531       524       527       530       532
       524       527       530       533       525       524       527       528
       525       524       527       529       525       524       527       530
       526       524       527       528       526       524       527       529
       526       524       527       530       527       530       533       534
       527       530       533       535       527       530       533       536
       528       527       530       531       528       527       530       532
       528       527       530       533       529       527       530       531
       529       527       530       532       529       527       530       533
       531       530       533       534       531       530       533       535
       531       530       533       536       532       530       533       534
       532       530       533       535       532       530       533       536
       537       539       541       542       537       539       541       543
       537       539       541       553       538       537       539       540
       538       537       539       541       539       541       543       544
       539       541       543       545       539       541       543       549
       539       541       553       554       539       541       553       555
       540       539       541       542       540       539       541       543
       540       539       541       553       541       543       545       546
       541       543       545       547       541       543       545       548
       541       543       549       550       541       543       549       551
       541       543       549       552       541       553       555       556
       541       553       555       557       542       541       543       544
       542       541       543       545       542       541       543       549
       542       541       553       554       542       541       553       555
       543       541       553       554       543       541       553       555
       544       543       541       553       544       543       545       546
       544       543       545       547       544       543       545       548
       544       543       549       550       544       543       549       551
       544       543       549       552       545       543       541       553
       545       543       549       550       545       543       549       551
       545       543       549       552       546       545       543       549
       547       545       543       549       548       545       543       549
       549       543       541       553       553       555       557       558
       553       555       557       559       553       555       557       572
       554       553       555       556       554       553       555       557
       555       557       559       560       555       557       559       561
       555       557       559       562       555       557       572       573
       555       557       572       574       556       555       557       558
       556       555       557       559       556       555       557       572
       557       559       562       563       557       559       562       564
       557       559       562       568       557       572       574       575
       557       572       574       576       558       557       559       560
       558       557       559       561       558       557       559       562
       558       557       572       573       558       557       572       574
       559       557       572       573       559       557       572       574
       559       562       564       565       559       562       564       566
       559       562       564       567       559       562       568       569
       559       562       568       570       559       562       568       571
       560       559       557       572       560       559       562       563
       560       559       562       564       560       559       562       568
       561       559       557       572       561       559       562       563
       561       559       562       564       561       559       562       568
       562       559       557       572       563       562       564       565
       563       562       564       566       563       562       564       567
       563       562       568       569       563       562       568       570
       563       562       568       571       564       562       568       569
       564       562       568       570       564       562       568       571
       565       564       562       568       566       564       562       568
       567       564       562       568       572       574       576       577
       572       574       576       578       572       574       576       586
       573       572       574       575       573       572       574       576
       574       576       578       579       574       576       578       580
       574       576       578       582       574       576       586       587
       574       576       586       588       575       574       576       577
       575       574       576       578       575       574       576       586
       576       578       580       581       576       578       582       583
       576       578       582       584       576       578       582       585
       576       586       588       589       576       586       588       590
       577       576       578       579       577       576       578       580
       577       576       578       582       577       576       586       587
       577       576       586       588       578       576       586       587
       578       576       586       588       579       578       576       586
       579       578       580       581       579       578       582       583
       579       578       582       584       579       578       582       585
       580       578       576       586       580       578       582       583
       580       578       582       584       580       578       582       585
       581       580       578       582       582       578       576       586
       586       588       590       591       586       588       590       592
       586       588       590       600       587       586       588       589
       587       586       588       590       588       590       592       593
       588       590       592       594       588       590       592       596
       588       590       600       601       588       590       600       602
       589       588       590       591       589       588       590       592
       589       588       590       600       590       592       594       595
       590       592       596       597       590       592       596       598
       590       592       596       599       590       600       602       603
       590       600       602       604       591       590       592       593
       591       590       592       594       591       590       592       596
       591       590       600       601       591       590       600       602
       592       590       600       601       592       590       600       602
       593       592       590       600       593       592       594       595
       593       592       596       597       593       592       596       598
       593       592       596       599       594       592       590       600
       594       592       596       597       594       592       596       598
       594       592       596       599       595       594       592       596
       596       592       590       600       600       602       604       605
       600       602       604       606       600       602       604       607
       601       600       602       603       601       600       602       604
       602       604       607       608       602       604       607       609
       603       602       604       605       603       602       604       606
       603       602       604       607       604       607       609       610
       604       607       609       611       605       604       607       608
       605       604       607       609       606       604       607       608
       606       604       607       609       607       609       611       612
       607       609       611       613       607       609       611       626
       608       607       609       610       608       607       609       611
       609       611       613       614       609       611       613       615
       609       611       613       616       609       611       626       627
       609       611       626       628       610       609       611       612
       610       609       611       613       610       609       611       626
       611       613       616       617       611       613       616       618
       611       613       616       622       611       626       628       629
       611       626       628       632       612       611       613       614
       612       611       613       615       612       611       613       616
       612       611       626       627       612       611       626       628
       613       611       626       627       613       611       626       628
       613       616       618       619       613       616       618       620
       613       616       618       621       613       616       622       623
       613       616       622       624       613       616       622       625
       614       613       611       626       614       613       616       617
       614       613       616       618       614       613       616       622
       615       613       611       626       615       613       616       617
       615       613       616       618       615       613       616       622
       616       613       611       626       617       616       618       619
       617       616       618       620       617       616       618       621
       617       616       622       623       617       616       622       624
       617       616       622       625       618       616       622       623
       618       616       622       624       618       616       622       625
       619       618       616       622       620       618       616       622
       621       618       616       622       626       628       629       630
       626       628       629       631       626       628       629       637
       626       628       632       633       626       628       632       634
       626       628       632       640       627       626       628       629
       627       626       628       632       628       629       637       634
       628       629       637       638       628       629       637       639
       628       632       634       635       628       632       634       636
       628       632       634       637       628       632       640       641
       628       632       640       642       629       628       632       633
       629       628       632       634       629       628       632       640
       629       637       634       632       629       637       634       635
       629       637       634       636       630       629       628       632
       630       629       637       634       630       629       637       638
       630       629       637       639       631       629       628       632
       631       629       637       634       631       629       637       638
       631       629       637       639       632       628       629       637
       632       634       637       638       632       634       637       639
       632       640       642       643       632       640       642       644
       633       632       634       635       633       632       634       636
       633       632       634       637       633       632       640       641
       633       632       640       642       634       632       640       641
       634       632       640       642       635       634       632       640
       635       634       637       638       635       634       637       639
       636       634       632       640       636       634       637       638
       636       634       637       639       637       634       632       640
       640       642       644       645       640       642       644       646
       640       642       644       650       641       640       642       643
       641       640       642       644       642       644       646       647
       642       644       646       648       642       644       646       649
       642       644       650       651       642       644       650       652
       643       642       644       645       643       642       644       646
       643       642       644       650       644       650       652       653
       644       650       652       654       645       644       646       647
       645       644       646       648       645       644       646       649
       645       644       650       651       645       644       650       652
       646       644       650       651       646       644       650       652
       647       646       644       650       648       646       644       650
       649       646       644       650       650       652       654       655
       650       652       654       656       650       652       654       669
       651       650       652       653       651       650       652       654
       652       654       656       657       652       654       656       658
       652       654       656       659       652       654       669       670
       652       654       669       671       653       652       654       655
       653       652       654       656       653       652       654       669
       654       656       659       660       654       656       659       661
       654       656       659       665       654       669       671       672
       654       669       671       673       655       654       656       657
       655       654       656       658       655       654       656       659
       655       654       669       670       655       654       669       671
       656       654       669       670       656       654       669       671
       656       659       661       662       656       659       661       663
       656       659       661       664       656       659       665       666
       656       659       665       667       656       659       665       668
       657       656       654       669       657       656       659       660
       657       656       659       661       657       656       659       665
       658       656       654       669       658       656       659       660
       658       656       659       661       658       656       659       665
       659       656       654       669       660       659       661       662
       660       659       661       663       660       659       661       664
       660       659       665       666       660       659       665       667
       660       659       665       668       661       659       665       666
       661       659       665       667       661       659       665       668
       662       661       659       665       663       661       659       665
       664       661       659       665       669       671       673       674
       669       671       673       675       669       671       673       688
       670       669       671       672       670       669       671       673
       671       673       675       676       671       673       675       677
       671       673       675       681       671       673       688       689
       671       673       688       690       672       671       673       674
       672       671       673       675       672       671       673       688
       673       675       677       678       673       675       677       679
       673       675       677       680       673       675       681       682
       673       675       681       683       673       675       681       684
       673       688       690       691       673       688       690       692
       674       673       675       676       674       673       675       677
       674       673       675       681       674       673       688       689
       674       673       688       690       675       673       688       689
       675       673       688       690       675       681       684       685
       675       681       684       686       675       681       684       687
       676       675       673       688       676       675       677       678
       676       675       677       679       676       675       677       680
       676       675       681       682       676       675       681       683
       676       675       681       684       677       675       673       688
       677       675       681       682       677       675       681       683
       677       675       681       684       678       677       675       681
       679       677       675       681       680       677       675       681
       681       675       673       688       682       681       684       685
       682       681       684       686       682       681       684       687
       683       681       684       685       683       681       684       686
       683       681       684       687       688       690       692       693
       688       690       692       694       688       690       692       699
       689       688       690       691       689       688       690       692
       690       692       694       695       690       692       694       696
       690       692       694       697       690       692       699       700
       690       692       699       701       691       690       692       693
       691       690       692       694       691       690       692       699
       692       694       697       698       692       699       701       702
       692       699       701       703       693       692       694       695
       693       692       694       696       693       692       694       697
       693       692       699       700       693       692       699       701
       694       692       699       700       694       692       699       701
       695       694       692       699       695       694       697       698
       696       694       692       699       696       694       697       698
       697       694       692       699       699       701       703       704
       699       701       703       705       699       701       703       723
       700       699       701       702       700       699       701       703
       701       703       705       706       701       703       705       707
       701       703       705       708       701       703       723       724
       701       703       723       725       702       701       703       704
       702       701       703       705       702       701       703       723
       703       705       708       709       703       705       708       714
       703       723       725       726       703       723       725       727
       704       703       705       706       704       703       705       707
       704       703       705       708       704       703       723       724
       704       703       723       725       705       703       723       724
       705       703       723       725       705       708       709       710
       705       708       709       711       705       708       714       713
       705       708       714       715       706       705       703       723
       706       705       708       709       706       705       708       714
       707       705       703       723       707       705       708       709
       707       705       708       714       708       705       703       723
       708       709       711       712       708       709       711       713
       708       714       713       711       708       714       713       719
       708       714       715       716       708       714       715       717
       709       708       714       713       709       708       714       715
       709       711       713       714       709       711       713       719
       710       709       708       714       710       709       711       712
       710       709       711       713       711       709       708       714
       711       713       714       715       711       713       719       720
       711       713       719       721       712       711       713       714
       712       711       713       719       713       714       715       716
       713       714       715       717       713       719       721       717
       713       719       721       722       714       713       719       720
       714       713       719       721       714       715       717       718
       714       715       717       721       715       714       713       719
       715       717       721       719       715       717       721       722
       716       715       717       718       716       715       717       721
       717       721       719       720       718       717       721       719
       718       717       721       722       720       719       721       722
       723       725       727       728       723       725       727       729
       723       725       727       742       724       723       725       726
       724       723       725       727       725       727       729       730
       725       727       729       731       725       727       729       735
       725       727       742       743       725       727       742       744
       726       725       727       728       726       725       727       729
       726       725       727       742       727       729       731       732
       727       729       731       733       727       729       731       734
       727       729       735       736       727       729       735       737
       727       729       735       738       727       742       744       745
       727       742       744       746       728       727       729       730
       728       727       729       731       728       727       729       735
       728       727       742       743       728       727       742       744
       729       727       742       743       729       727       742       744
       729       735       738       739       729       735       738       740
       729       735       738       741       730       729       727       742
       730       729       731       732       730       729       731       733
       730       729       731       734       730       729       735       736
       730       729       735       737       730       729       735       738
       731       729       727       742       731       729       735       736
       731       729       735       737       731       729       735       738
       732       731       729       735       733       731       729       735
       734       731       729       735       735       729       727       742
       736       735       738       739       736       735       738       740
       736       735       738       741       737       735       738       739
       737       735       738       740       737       735       738       741
       742       744       746       747       742       744       746       748
       742       744       746       764       743       742       744       745
       743       742       744       746       744       746       748       749
       744       746       748       750       744       746       748       751
       744       746       764       765       744       746       764       766
       745       744       746       747       745       744       746       748
       745       744       746       764       746       748       751       752
       746       748       751       753       746       748       751       754
       746       764       766       767       746       764       766       768
       747       746       748       749       747       746       748       750
       747       746       748       751       747       746       764       765
       747       746       764       766       748       746       764       765
       748       746       764       766       748       751       754       755
       748       751       754       756       748       751       754       757
       749       748       746       764       749       748       751       752
       749       748       751       753       749       748       751       754
       750       748       746       764       750       748       751       752
       750       748       751       753       750       748       751       754
       751       748       746       764       751       754       757       758
       751       754       757       759       751       754       757       760
       752       751       754       755       752       751       754       756
       752       751       754       757       753       751       754       755
       753       751       754       756       753       751       754       757
       754       757       760       761       754       757       760       762
       754       757       760       763       755       754       757       758
       755       754       757       759       755       754       757       760
       756       754       757       758       756       754       757       759
       756       754       757       760       758       757       760       761
       758       757       760       762       758       757       760       763
       759       757       760       761       759       757       760       762
       759       757       760       763       764       766       768       769
       764       766       768       770       764       766       768       788
       765       764       766       767       765       764       766       768
       766       768       770       771       766       768       770       772
       766       768       770       773       766       768       788       789
       766       768       788       790       767       766       768       769
       767       766       768       770       767       766       768       788
       768       770       773       774       768       770       773       775
       768       770       773       776       768       788       790       791
       768       788       790       792       769       768       770       771
       769       768       770       772       769       768       770       773
       769       768       788       789       769       768       788       790
       770       768       788       789       770       768       788       790
       770       773       776       777       770       773       776       778
       770       773       776       779       771       770       768       788
       771       770       773       774       771       770       773       775
       771       770       773       776       772       770       768       788
       772       770       773       774       772       770       773       775
       772       770       773       776       773       770       768       788
       773       776       779       780       773       776       779       781
       774       773       776       777       774       773       776       778
       774       773       776       779       775       773       776       777
       775       773       776       778       775       773       776       779
       776       779       781       782       776       779       781       785
       777       776       779       780       777       776       779       781
       778       776       779       780       778       776       779       781
       779       781       782       783       779       781       782       784
       779       781       785       786       779       781       785       787
       780       779       781       782       780       779       781       785
       782       781       785       786       782       781       785       787
       783       782       781       785       784       782       781       785
       788       790       792       793       788       790       792       794
       788       790       792       810       789       788       790       791
       789       788       790       792       790       792       794       795
       790       792       794       796       790       792       794       797
       790       792       810       811       790       792       810       812
       791       790       792       793       791       790       792       794
       791       790       792       810       792       794       797       798
       792       794       797       799       792       794       797       800
       792       810       812       813       792       810       812       814
       793       792       794       795       793       792       794       796
       793       792       794       797       793       792       810       811
       793       792       810       812       794       792       810       811
       794       792       810       812       794       797       800       801
       794       797       800       802       794       797       800       803
       795       794       792       810       795       794       797       798
       795       794       797       799       795       794       797       800
       796       794       792       810       796       794       797       798
       796       794       797       799       796       794       797       800
       797       794       792       810       797       800       803       804
       797       800       803       805       797       800       803       806
       798       797       800       801       798       797       800       802
       798       797       800       803       799       797       800       801
       799       797       800       802       799       797       800       803
       800       803       806       807       800       803       806       808
       800       803       806       809       801       800       803       804
       801       800       803       805       801       800       803       806
       802       800       803       804       802       800       803       805
       802       800       803       806       804       803       806       807
       804       803       806       808       804       803       806       809
       805       803       806       807       805       803       806       808
       805       803       806       809       810       812       814       815
       810       812       814       816       810       812       814       834
       811       810       812       813       811       810       812       814
       812       814       816       817       812       814       816       818
       812       814       816       819       812       814       834       835
       812       814       834       836       813       812       814       815
       813       812       814       816       813       812       814       834
       814       816       819       820       814       816       819       821
       814       816       819       822       814       834       836       837
       814       834       836       838       815       814       816       817
       815       814       816       818       815       814       816       819
       815       814       834       835       815       814       834       836
       816       814       834       835       816       814       834       836
       816       819       822       823       816       819       822       824
       816       819       822       825       817       816       814       834
       817       816       819       820       817       816       819       821
       817       816       819       822       818       816       814       834
       818       816       819       820       818       816       819       821
       818       816       819       822       819       816       814       834
       819       822       825       826       819       822       825       827
       820       819       822       823       820       819       822       824
       820       819       822       825       821       819       822       823
       821       819       822       824       821       819       822       825
       822       825       827       828       822       825       827       831
       823       822       825       826       823       822       825       827
       824       822       825       826       824       822       825       827
       825       827       828       829       825       827       828       830
       825       827       831       832       825       827       831       833
       826       825       827       828       826       825       827       831
       828       827       831       832       828       827       831       833
       829       828       827       831       830       828       827       831
       834       836       838       839       834       836       838       840
       834       836       838       851       835       834       836       837
       835       834       836       838       836       838       840       841
       836       838       840       842       836       838       840       843
       836       838       851       852       836       838       851       853
       837       836       838       839       837       836       838       840
       837       836       838       851       838       840       843       844
       838       840       843       845       838       840       843       846
       838       851       853       854       838       851       853       855
       839       838       840       841       839       838       840       842
       839       838       840       843       839       838       851       852
       839       838       851       853       840       838       851       852
       840       838       851       853       840       843       846       847
       840       843       846       848       841       840       838       851
       841       840       843       844       841       840       843       845
       841       840       843       846       842       840       838       851
       842       840       843       844       842       840       843       845
       842       840       843       846       843       840       838       851
       843       846       848       849       843       846       848       850
       844       843       846       847       844       843       846       848
       845       843       846       847       845       843       846       848
       847       846       848       849       847       846       848       850
       851       853       855       856       851       853       855       857
       851       853       855       868       852       851       853       854
       852       851       853       855       853       855       857       858
       853       855       857       859       853       855       857       860
       853       855       868       869       853       855       868       870
       854       853       855       856       854       853       855       857
       854       853       855       868       855       857       860       861
       855       857       860       862       855       857       860       863
       855       868       870       871       855       868       870       872
       856       855       857       858       856       855       857       859
       856       855       857       860       856       855       868       869
       856       855       868       870       857       855       868       869
       857       855       868       870       857       860       863       864
       857       860       863       865       858       857       855       868
       858       857       860       861       858       857       860       862
       858       857       860       863       859       857       855       868
       859       857       860       861       859       857       860       862
       859       857       860       863       860       857       855       868
       860       863       865       866       860       863       865       867
       861       860       863       864       861       860       863       865
       862       860       863       864       862       860       863       865
       864       863       865       866       864       863       865       867
       869       868       870       871       869       868       870       872

       136 !NIMPHI: impropers
         8         5        10         9        10         8        12        11
        27        12        29        28        29        27        31        30
        34        31        36        35        36        34        38        37
        44        38        46        45        46        44        48        47
        60        48        62        61        62        60        64        63
        79        64        81        80        81        79        83        82
       101        83       103       102       103       101       105       104
       117       105       119       118       119       117       121       120
       136       121       138       137       138       136       140       139
       150       140       152       151       152       150       154       153
       164       154       166       165       166       164       168       167
       171       168       173       172       173       171       175       174
       190       175       192       191       192       190       196       193
       204       196       206       205       206       204       208       207
       214       208       216       215       216       214       218       217
       233       218       235       234       235       233       237       236
       252       237       254       253       254       252       256       255
       263       256       265       264       265       263       267       266
       287       267       289       288       289       287       291       290
       306       291       308       307       308       306       310       309
       328       310       330       329       330       328       332       331
       352       332       354       353       345       346       349       343
       346       347       348       345       349       350       351       345
       354       352       356       355       374       356       376       375
       376       374       378       377       398       378       400       399
       391       392       395       389       392       393       394       391
       395       396       397       391       400       398       402       401
       415       402       417       416       410       412       407       411
       410       407       412       411       412       410       413       414
       412       410       414       413       417       415       419       418
       427       429       424       428       427       424       429       428
       429       427       430       431       429       427       431       430
       432       434       419       433       432       419       434       433
       434       432       435       436       434       432       436       435
       444       441       446       445       446       444       448       447
       463       448       465       464       465       463       467       466
       470       467       472       471       472       470       474       473
       480       474       482       481       482       480       484       483
       496       484       498       497       498       496       500       499
       515       500       517       516       517       515       519       518
       537       519       539       538       539       537       541       540
       553       541       555       554       555       553       557       556
       572       557       574       573       574       572       576       575
       586       576       588       587       588       586       590       589
       600       590       602       601       602       600       604       603
       607       604       609       608       609       607       611       610
       626       611       628       627       628       626       632       629
       640       632       642       641       642       640       644       643
       650       644       652       651       652       650       654       653
       669       654       671       670       671       669       673       672
       688       673       690       689       690       688       692       691
       699       692       701       700       701       699       703       702
       723       703       725       724       725       723       727       726
       742       727       744       743       744       742       746       745
       764       746       766       765       766       764       768       767
       788       768       790       789       781       782       785       779
       782       783       784       781       785       786       787       781
       790       788       792       791       810       792       812       811
       812       810       814       813       834       814       836       835
       827       828       831       825       828       829       830       827
       831       832       833       827       836       834       838       837
       851       838       853       852       846       848       843       847
       846       843       848       847       848       846       849       850
       848       846       850       849       853       851       855       854
       863       865       860       864       863       860       865       864
       865       863       866       867       865       863       867       866
       868       870       855       869       868       855       870       869
       870       868       871       872       870       868       872       871

       112 !NDON: donors
         1         2         1         3         1         4        10        11
        29        30        36        37        46        47        62        63
        81        82        97        98        97        99        97       100
       103       104       119       120       138       139       144       145
       152       153       158       159       166       167       173       174
       206       207       216       217       235       236       254       255
       261       262       265       266       275       276       289       290
       308       309       324       325       324       326       324       327
       330       331       343       344       346       347       346       348
       349       350       349       351       354       355       370       371
       370       372       370       373       376       377       389       390
       392       393       392       394       395       396       395       397
       400       401       412       413       412       414       417       418
       429       430       429       431       434       435       434       436
       437       438       437       439       437       440       446       447
       465       466       472       473       482       483       498       499
       517       518       533       534       533       535       533       536
       539       540       555       556       574       575       580       581
       588       589       594       595       602       603       609       610
       642       643       652       653       671       672       690       691
       697       698       701       702       711       712       725       726
       744       745       760       761       760       762       760       763
       766       767       779       780       782       783       782       784
       785       786       785       787       790       791       806       807
       806       808       806       809       812       813       825       826
       828       829       828       830       831       832       831       833
       836       837       848       849       848       850       853       854
       865       866       865       867       870       871       870       872

        62 !NACC: acceptors
         9         8        28        27        35        34        45        44
        61        60        80        79       102       101       118       117
       137       136       144         0       151       150       158         0
       165       164       172       171       191       190       205       204
       215       214       234       233       253       252       261         0
       264       263       288       287       307       306       329       328
       353       352       375       374       399       398       411       410
       416       415       428       427       433       432       445       444
       464       463       471       470       481       480       497       496
       516       515       538       537       554       553       573       572
       580         0       587       586       594         0       601       600
       608       607       627       626       641       640       651       650
       670       669       689       688       697         0       700       699
       724       723       743       742       765       764       789       788
       811       810       835       834       847       846       852       851
       864       863       869       868

         0 !NNB

         0         0         0         0         0         0         0         0
         0         0         0         0         0         0         0         0
         0         0         0         0         0         0         0         0
         0         0         0         0         0         0         0         0
         0         0         0         0         0         0         0         0
         0         0         0         0         0         0         0         0
         0         0         0         0         0         0         0         0
         0         0         0         0         0         0         0         0
         0         0         0         0         0         0         0         0
         0         0         0         0         0         0         0         0
         0         0         0         0         0         0         0         0
         0         0         0         0         0         0         0         0
         0         0         0         0         0         0         0         0
         0         0         0         0         0         0         0         0
         0         0         0         0         0         0         0         0
         0         0         0         0         0         0         0         0
         0         0         0         0         0         0         0         0
         0         0         0         0         0         0         0         0
         0         0         0         0         0         0         0         0
         0         0         0         0         0         0         0         0
         0         0         0         0         0         0         0         0
         0         0         0         0         0         0         0         0
         0         0         0         0         0         0         0         0
         0         0         0         0         0         0         0         0
         0         0         0         0         0         0         0         0
         0         0         0         0         0         0         0         0
         0         0         0         0         0         0         0         0
         0         0         0         0         0         0         0         0
         0         0         0         0         0         0         0         0
         0         0         0         0         0         0         0         0
         0         0         0         0         0         0         0         0
         0         0         0         0         0         0         0         0
         0         0         0         0         0         0         0         0
         0         0         0         0         0         0         0         0
         0         0         0         0         0         0         0         0
         0         0         0         0         0         0         0         0
         0         0         0         0         0         0         0         0
         0         0         0         0         0         0         0         0
         0         0         0         0         0         0         0         0
         0         0         0         0         0         0         0         0
         0         0         0         0         0         0         0         0
         0         0         0         0         0         0         0         0
         0         0         0         0         0         0         0         0
         0         0         0         0         0         0         0         0
         0         0         0         0         0         0         0         0
         0         0         0         0         0         0         0         0
         0         0         0         0         0         0         0         0
         0         0         0         0         0         0         0         0
         0         0         0         0         0         0         0         0
         0         0         0         0         0         0         0         0
         0         0         0         0         0         0         0         0
         0         0         0         0         0         0         0         0
         0         0         0         0         0         0         0         0
         0         0         0         0         0         0         0         0
         0         0         0         0         0         0         0         0
         0         0         0         0         0         0         0         0
         0         0         0         0         0         0         0         0
         0         0         0         0         0         0         0         0
         0         0         0         0         0         0         0         0
         0         0         0         0         0         0         0         0
         0         0         0         0         0         0         0         0
         0         0         0         0         0         0         0         0
         0         0         0         0         0         0         0         0
         0         0         0         0         0         0         0         0
         0         0         0         0         0         0         0         0
         0         0         0         0         0         0         0         0
         0         0         0         0         0         0         0         0
         0         0         0         0         0         0         0         0
         0         0         0         0         0         0         0         0
         0         0         0         0         0         0         0         0
         0         0         0         0         0         0         0         0
         0         0         0         0         0         0         0         0
         0         0         0         0         0         0         0         0
         0         0         0         0         0         0         0         0
         0         0         0         0         0         0         0         0
         0         0         0         0         0         0         0         0
         0         0         0         0         0         0         0         0
         0         0         0         0         0         0         0         0
         0         0         0         0         0         0         0         0
         0         0         0         0         0         0         0         0
         0         0         0         0         0         0         0         0
         0         0         0         0         0         0         0         0
         0         0         0         0         0         0         0         0
         0         0         0         0         0         0         0         0
         0         0         0         0         0         0         0         0
         0         0         0         0         0         0         0         0
         0         0         0         0         0         0         0         0
         0         0         0         0         0         0         0         0
         0         0         0         0         0         0         0         0
         0         0         0         0         0         0         0         0
         0         0         0         0         0         0         0         0
         0         0         0         0         0         0         0         0
         0         0         0         0         0         0         0         0
         0         0         0         0         0         0         0         0
         0         0         0         0         0         0         0         0
         0         0         0         0         0         0         0         0
         0         0         0         0         0         0         0         0
         0         0         0         0         0         0         0         0
         0         0         0         0         0         0         0         0
         0         0         0         0         0         0         0         0
         0         0         0         0         0         0         0         0
         0         0         0         0         0         0         0         0
         0         0         0         0         0         0         0         0
         0         0         0         0         0         0         0         0
         0         0         0         0         0         0         0         0
         0         0         0         0         0         0         0         0
         0         0         0         0         0         0         0         0
         0         0         0         0         0         0         0         0
         0         0         0         0         0         0         0         0

       248         0 !NGRP NST2
         0         2         0         7         1         0         9         1         0
        13         1         0        15         1         0        19         1         0
        22         1         0        26         1         0        28         1         0
        33         1         0        35         1         0        39         1         0
        43         1         0        45         1         0        49         1         0
        51         1         0        55         1         0        59         1         0
        61         1         0        65         1         0        68         1         0
        70         1         0        74         1         0        78         1         0
        80         1         0        84         1         0        87         1         0
        90         1         0        93         2         0       100         1         0
       102         1         0       106         1         0       108         1         0
       112         1         0       116         1         0       118         1         0
       122         1         0       125         1         0       127         1         0
       131         1         0       135         1         0       137         1         0
       141         1         0       145         1         0       149         1         0
       151         1         0       155         1         0       159         1         0
       163         1         0       165         1         0       170         1         0
       172         1         0       176         1         0       179         1         0
       181         1         0       185         1         0       189         1         0
       191         1         0       197         1         0       200         1         0
       203         1         0       205         1         0       209         1         0
       213         1         0       215         1         0       219         1         0
       222         1         0       224         1         0       228         1         0
       232         1         0       234         1         0       238         1         0
       240         1         0       244         1         0       247         1         0
       251         1         0       253         1         0       257         1         0
       262         1         0       264         1         0       268         1         0
       271         1         0       286         1         0       288         1         0
       292         1         0       294         1         0       298         1         0
       301         1         0       305         1         0       307         1         0
       311         1         0       314         1         0       317         1         0
       320         2         0       327         1         0       329         1         0
       333         1         0       336         1         0       339         2         0
       351         1         0       353         1         0       357         1         0
       360         1         0       363         1         0       366         2         0
       373         1         0       375         1         0       379         1         0
       382         1         0       385         2         0       397         1         0
       399         1         0       403         1         0       406         1         0
       409         1         0       411         1         0       414         1         0
       416         1         0       420         1         0       423         1         0
       426         1         0       428         1         0       431         1         0
       433         1         0       436         2         0       443         1         0
       445         1         0       449         1         0       451         1         0
       455         1         0       458         1         0       462         1         0
       464         1         0       469         1         0       471         1         0
       475         1         0       479         1         0       481         1         0
       485         1         0       487         1         0       491         1         0
       495         1         0       497         1         0       501         1         0
       504         1         0       506         1         0       510         1         0
       514         1         0       516         1         0       520         1         0
       523         1         0       526         1         0       529         2         0
       536         1         0       538         1         0       542         1         0
       544         1         0       548         1         0       552         1         0
       554         1         0       558         1         0       561         1         0
       563         1         0       567         1         0       571         1         0
       573         1         0       577         1         0       581         1         0
       585         1         0       587         1         0       591         1         0
       595         1         0       599         1         0       601         1         0
       606         1         0       608         1         0       612         1         0
       615         1         0       617         1         0       621         1         0
       625         1         0       627         1         0       633         1         0
       636         1         0       639         1         0       641         1         0
       645         1         0       649         1         0       651         1         0
       655         1         0       658         1         0       660         1         0
       664         1         0       668         1         0       670         1         0
       674         1         0       676         1         0       680         1         0
       683         1         0       687         1         0       689         1         0
       693         1         0       698         1         0       700         1         0
       704         1         0       707         1         0       722         1         0
       724         1         0       728         1         0       730         1         0
       734         1         0       737         1         0       741         1         0
       743         1         0       747         1         0       750         1         0
       753         1         0       756         2         0       763         1         0
       765         1         0       769         1         0       772         1         0
       775         2         0       787         1         0       789         1         0
       793         1         0       796         1         0       799         1         0
       802         2         0       809         1         0       811         1         0
       815         1         0       818         1         0       821         2         0
       833         1         0       835         1         0       839         1         0
       842         1         0       845         1         0       847         1         0
       850         1         0       852         1         0       856         1         0
       859         1         0       862         1         0       864         1         0
       867         1         0       869         1         0

         0         0 !NUMLP NUMLPH

        48 !NCRTERM: cross-terms
         8        10        12        27        10        12        27        29
        27        29        31        34        29        31        34        36
        34        36        38        44        36        38        44        46
        44        46        48        60        46        48        60        62
        60        62        64        79        62        64        79        81
        79        81        83       101        81        83       101       103
       101       103       105       117       103       105       117       119
       117       119       121       136       119       121       136       138
       136       138       140       150       138       140       150       152
       150       152       154       164       152       154       164       166
       164       166       168       171       166       168       171       173
       171       173       175       190       173       175       190       192
       190       192       196       204       192       196       204       206
       204       206       208       214       206       208       214       216
       214       216       218       233       216       218       233       235
       233       235       237       252       235       237       252       254
       252       254       256       263       254       256       263       265
       263       265       267       287       265       267       287       289
       287       289       291       306       289       291       306       308
       306       308       310       328       308       310       328       330
       328       330       332       352       330       332       352       354
       352       354       356       374       354       356       374       376
       374       376       378       398       376       378       398       400
       398       400       402       415       400       402       415       417
       444       446       448       463       446       448       463       465
       463       465       467       470       465       467       470       472
       470       472       474       480       472       474       480       482
       480       482       484       496       482       484       496       498
       496       498       500       515       498       500       515       517
       515       517       519       537       517       519       537       539
       537       539       541       553       539       541       553       555
       553       555       557       572       555       557       572       574
       572       574       576       586       574       576       586       588
       586       588       590       600       588       590       600       602
       600       602       604       607       602       604       607       609
       607       609       611       626       609       611       626       628
       626       628       632       640       628       632       640       642
       640       642       644       650       642       644       650       652
       650       652       654       669       652       654       669       671
       669       671       673       688       671       673       688       690
       688       690       692       699       690       692       699       701
       699       701       703       723       701       703       723       725
       723       725       727       742       725       727       742       744
       742       744       746       764       744       746       764       766
       764       766       768       788       766       768       788       790
       788       790       792       810       790       792       810       812
       810       812       814       834       812       814       834       836
       834       836       838       851       836       838       851       853
