* GENERATED BY CHARMM-GUI (HTTP://WWW.CHARMM-GUI.ORG) V3.7 ON DEC, 01. 2025. JOB
* INPUT GENERATION
*  DATE:    12/ 1/25      8: 6:49      CREATED BY USER: charmm-gui
*
     28048  EXT
         1         1  GLY       N              -9.5935179856       -7.9520423398       13.1923228963  PROA      1               0.0000000000
         2         1  GLY       HT1           -10.3500393966       -8.6697858401       13.2534624533  PROA      1               0.0000000000
         3         1  GLY       HT2            -9.1733661281       -7.9133161796       12.2398016100  PROA      1               0.0000000000
         4         1  GLY       HT3           -10.0839108037       -7.0328624407       13.3904388240  PROA      1               0.0000000000
         5         1  GLY       CA             -8.5775839234       -8.1889857803       14.2523882590  PROA      1               0.0064986403
         6         1  GLY       HA1            -8.4646395825       -9.2549480827       14.3768883594  PROA      1               0.0073876218
         7         1  GLY       HA2            -8.9181860211       -7.6778360379       15.1435846407  PROA      1               0.0116660646
         8         1  GLY       C              -7.2519786057       -7.6364076067       13.8678405799  PROA      1               0.0000000000
         9         1  GLY       O              -6.8897406659       -7.6830102025       12.6976905058  PROA      1               0.0000000000
        10         2  ILE       N              -6.5010530090       -7.1268389543       14.8511215514  PROA      2               0.0247572030
        11         2  ILE       HN             -6.8500699075       -7.0331875511       15.7797277609  PROA      2               0.0389923129
        12         2  ILE       CA             -5.1647883851       -6.5906457510       14.6835909670  PROA      2               0.0228748912
        13         2  ILE       HA             -5.1602515130       -5.9644596696       13.8050432153  PROA      2               0.0000000000
        14         2  ILE       CB             -4.7588621685       -5.8073661382       15.9214090771  PROA      2               0.0455213191
        15         2  ILE       HB             -4.8072238303       -6.4498952870       16.8326531267  PROA      2               0.0614129276
        16         2  ILE       CG2            -3.3187561131       -5.2478821145       15.8206985473  PROA      2               0.0457195750
        17         2  ILE       HG21           -3.1753516197       -4.7023688000       14.8631778507  PROA      2               0.0326596660
        18         2  ILE       HG22           -2.5612819747       -6.0584069903       15.8769261821  PROA      2               0.0514210363
        19         2  ILE       HG23           -3.1263186226       -4.5380845482       16.6549575658  PROA      2               0.0612269084
        20         2  ILE       CG1            -5.7853169324       -4.6732711400       16.0707787139  PROA      2               0.0479681771
        21         2  ILE       HG11           -5.3865732167       -3.9605376243       16.8176104641  PROA      2               0.0608814440
        22         2  ILE       HG12           -6.7412324017       -5.0606948565       16.4854286683  PROA      2               0.0613863534
        23         2  ILE       CD             -6.0893268414       -3.9788884298       14.7287100930  PROA      2               0.0362222720
        24         2  ILE       HD1            -6.7336217580       -4.6021130581       14.0760544172  PROA      2               0.0063246546
        25         2  ILE       HD2            -5.1445397685       -3.7703363450       14.1879620535  PROA      2               0.0158913590
        26         2  ILE       HD3            -6.6293538622       -3.0319785766       14.8294983214  PROA      2               0.0484978766
        27         2  ILE       C              -4.1567398192       -7.6003628404       14.2819242652  PROA      2               0.0107520556
        28         2  ILE       O              -3.2739748101       -7.2902808631       13.4983424955  PROA      2               0.0000000000
        29         3  GLY       N              -4.2822721574       -8.8547148780       14.7531648515  PROA      3               0.0202677233
        30         3  GLY       HN             -4.9609916494       -9.0654293707       15.4451714546  PROA      3               0.0000000000
        31         3  GLY       CA             -3.3589022242       -9.9170844817       14.3707682936  PROA      3               0.0179101960
        32         3  GLY       HA1            -3.6794054611      -10.8279234160       14.8515164825  PROA      3               0.0239167611
        33         3  GLY       HA2            -2.3574556052       -9.6260793738       14.6572474269  PROA      3               0.0195585957
        34         3  GLY       C              -3.3363265615      -10.1872991223       12.8886553499  PROA      3               0.0000000000
        35         3  GLY       O              -2.2872776269      -10.4176177552       12.2944833619  PROA      3               0.0000000000
        36         4  ALA       N              -4.5257498616      -10.1600661610       12.2586889035  PROA      4               0.0000000000
        37         4  ALA       HN             -5.3482316862       -9.9725609444       12.7775068942  PROA      4               0.0000000000
        38         4  ALA       CA             -4.6816320798      -10.2891227253       10.8232371073  PROA      4               0.0000000000
        39         4  ALA       HA             -4.1813460971      -11.1941704761       10.5035441344  PROA      4               0.0000000000
        40         4  ALA       CB             -6.1881577485      -10.3989113889       10.5062109787  PROA      4               0.0000000000
        41         4  ALA       HB1            -6.7287745569       -9.4817853299       10.8157337787  PROA      4               0.0000000000
        42         4  ALA       HB2            -6.6225717676      -11.2698315176       11.0408933524  PROA      4               0.0000000000
        43         4  ALA       HB3            -6.3534348694      -10.5535518197        9.4179072254  PROA      4               0.0000000000
        44         4  ALA       C              -4.0586960168       -9.1418009226       10.0298156071  PROA      4               0.0000000000
        45         4  ALA       O              -3.3115607268       -9.3524648131        9.0726975386  PROA      4               0.0000000000
        46         5  VAL       N              -4.3229255881       -7.8847429540       10.4622438042  PROA      5               0.0000000000
        47         5  VAL       HN             -4.9287568746       -7.7427904465       11.2387310574  PROA      5               0.0000000000
        48         5  VAL       CA             -3.7310937867       -6.6841630015        9.8894049798  PROA      5               0.0000000000
        49         5  VAL       HA             -3.9452520164       -6.6669368059        8.8319089033  PROA      5               0.0000000000
        50         5  VAL       CB             -4.3006113803       -5.4147176777       10.5292991317  PROA      5               0.0000000000
        51         5  VAL       HB             -4.2194280568       -5.5019065246       11.6390402533  PROA      5               0.0000000000
        52         5  VAL       CG1            -3.5201358579       -4.1506895358       10.0979232479  PROA      5               0.0000000000
        53         5  VAL       HG11           -3.6531093545       -3.9472562936        9.0151515824  PROA      5               0.0000000000
        54         5  VAL       HG12           -2.4341706054       -4.2137593164       10.3159434296  PROA      5               0.0000000000
        55         5  VAL       HG13           -3.8838824387       -3.2803184872       10.6812139571  PROA      5               0.0000000000
        56         5  VAL       CG2            -5.7941128936       -5.2676262791       10.1654835155  PROA      5               0.0000000000
        57         5  VAL       HG21           -6.3874226824       -6.1293096530       10.5272952706  PROA      5               0.0000000000
        58         5  VAL       HG22           -5.9108102744       -5.1918195586        9.0633557280  PROA      5               0.0000000000
        59         5  VAL       HG23           -6.2020317622       -4.3387886922       10.6194555159  PROA      5               0.0000000000
        60         5  VAL       C              -2.2233279657       -6.7006974814       10.0454453148  PROA      5               0.0000000000
        61         5  VAL       O              -1.4647694249       -6.4527662857        9.1144840316  PROA      5               0.0000000000
        62         6  LEU       N              -1.7397097771       -7.0534598057       11.2436318658  PROA      6               0.0000000000
        63         6  LEU       HN             -2.3730274617       -7.2360143355       12.0000458760  PROA      6               0.0000000000
        64         6  LEU       CA             -0.3438444676       -7.1469160307       11.5804023762  PROA      6               0.0000000000
        65         6  LEU       HA              0.0987596554       -6.1818200260       11.3741736947  PROA      6               0.0000000000
        66         6  LEU       CB             -0.2097323151       -7.4424311858       13.0940644181  PROA      6               0.0000000000
        67         6  LEU       HB1            -0.7217418369       -8.4018937958       13.3277381226  PROA      6               0.0000000000
        68         6  LEU       HB2            -0.7517071314       -6.6392460914       13.6425470742  PROA      6               0.0000000000
        69         6  LEU       CG              1.2255993622       -7.5065545603       13.6480638679  PROA      6               0.0000000000
        70         6  LEU       HG              1.7513412722       -8.3783829902       13.1875787046  PROA      6               0.0000000000
        71         6  LEU       CD1             2.0402763339       -6.2475535928       13.3112423942  PROA      6               0.0000000000
        72         6  LEU       HD11            1.5592486289       -5.3431131579       13.7393449762  PROA      6               0.0000000000
        73         6  LEU       HD12            2.1352448619       -6.1128267984       12.2130972930  PROA      6               0.0000000000
        74         6  LEU       HD13            3.0680224669       -6.3347974921       13.7232981539  PROA      6               0.0000000000
        75         6  LEU       CD2             1.1852088098       -7.7210399261       15.1700416216  PROA      6               0.0331577353
        76         6  LEU       HD21            0.6739655611       -8.6771432982       15.4098702500  PROA      6               0.0395158041
        77         6  LEU       HD22            0.6399154124       -6.8886706942       15.6618346281  PROA      6               0.0421466479
        78         6  LEU       HD23            2.2172154787       -7.7635044349       15.5787214614  PROA      6               0.0448306399
        79         6  LEU       C               0.3969847656       -8.1487294940       10.7101013997  PROA      6               0.0000000000
        80         6  LEU       O               1.4617730138       -7.8467213737       10.1810598996  PROA      6               0.0000000000
        81         7  LYS       N              -0.1789067857       -9.3367920132       10.4297174727  PROA      7               0.0000000000
        82         7  LYS       HN             -1.0309335531       -9.6102380469       10.8790558824  PROA      7               0.0000000000
        83         7  LYS       CA              0.4057121945      -10.2511575805        9.4563322054  PROA      7               0.0000000000
        84         7  LYS       HA              1.3813613016      -10.5533036287        9.8181701419  PROA      7               0.0000000000
        85         7  LYS       CB             -0.4924594643      -11.5021737699        9.2580965381  PROA      7               0.0000000000
        86         7  LYS       HB1            -0.3651898814      -11.9382573100        8.2382594029  PROA      7               0.0000000000
        87         7  LYS       HB2            -1.5535558782      -11.1766591484        9.3419160212  PROA      7               0.0000000000
        88         7  LYS       CG             -0.2249241482      -12.6367992742       10.2451996293  PROA      7               0.0000000000
        89         7  LYS       HG1            -0.2622909237      -12.2429700129       11.2851833405  PROA      7               0.0000000000
        90         7  LYS       HG2             0.8092445643      -13.0054164792       10.0401084599  PROA      7               0.0000000000
        91         7  LYS       CD             -1.2245984490      -13.7908261518       10.0605851658  PROA      7               0.0000000000
        92         7  LYS       HD1            -1.2022945180      -14.0851281921        8.9849598324  PROA      7               0.0000000000
        93         7  LYS       HD2            -2.2444421210      -13.4093179407       10.2949278801  PROA      7               0.0000000000
        94         7  LYS       CE             -0.8867981993      -14.9919039704       10.9434221346  PROA      7               0.0000000000
        95         7  LYS       HE1            -1.0368218453      -14.7406328667       12.0158171463  PROA      7               0.0000000000
        96         7  LYS       HE2             0.1729931774      -15.2638454436       10.7684404330  PROA      7               0.0000000000
        97         7  LYS       NZ             -1.7000614600      -16.1838875195       10.6092410933  PROA      7               0.0000000000
        98         7  LYS       HZ1            -1.5609706393      -16.4476787120        9.6137263278  PROA      7               0.0000000000
        99         7  LYS       HZ2            -2.7067774215      -15.9967851647       10.7845282122  PROA      7               0.0000000000
       100         7  LYS       HZ3            -1.4079849484      -16.9848607055       11.2037296918  PROA      7               0.0000000000
       101         7  LYS       C               0.6306127741       -9.6707504849        8.0663051961  PROA      7               0.0000000000
       102         7  LYS       O               1.6933145682       -9.8529963316        7.4688446365  PROA      7               0.0000000000
       103         8  VAL       N              -0.3692073285       -8.9544708144        7.5072359075  PROA      8               0.0000000000
       104         8  VAL       HN             -1.2332592083       -8.8451447391        7.9963693334  PROA      8               0.0000000000
       105         8  VAL       CA             -0.2387993161       -8.2928764161        6.2182040167  PROA      8               0.0000000000
       106         8  VAL       HA              0.1977209797       -9.0373953477        5.5665162624  PROA      8               0.0000000000
       107         8  VAL       CB             -1.5354423702       -7.8961584431        5.5070634511  PROA      8               0.0000000000
       108         8  VAL       HB             -1.2806265872       -7.5076775098        4.4903665236  PROA      8               0.0000000000
       109         8  VAL       CG1            -2.4057941980       -9.1533603576        5.3161684403  PROA      8               0.0000000000
       110         8  VAL       HG11           -2.7212577589       -9.5649788755        6.2992735063  PROA      8               0.0000000000
       111         8  VAL       HG12           -1.8478887317       -9.9426472225        4.7706730751  PROA      8               0.0000000000
       112         8  VAL       HG13           -3.3198681681       -8.9059980828        4.7379115864  PROA      8               0.0000000000
       113         8  VAL       CG2            -2.3239352365       -6.8095416302        6.2490039422  PROA      8               0.0000000000
       114         8  VAL       HG21           -1.7127182879       -5.9077910775        6.4567308568  PROA      8               0.0000000000
       115         8  VAL       HG22           -2.7026353511       -7.2239598397        7.2041432928  PROA      8               0.0000000000
       116         8  VAL       HG23           -3.2085820319       -6.5000614091        5.6519602755  PROA      8               0.0000000000
       117         8  VAL       C               0.7755317209       -7.1628007040        6.2165020072  PROA      8               0.0000000000
       118         8  VAL       O               1.5459248013       -7.0534087844        5.2635836645  PROA      8               0.0000000000
       119         9  LEU       N               0.8737761553       -6.3455672206        7.2962658244  PROA      9               0.0000000000
       120         9  LEU       HN              0.1978082985       -6.4166393783        8.0346025458  PROA      9               0.0000000000
       121         9  LEU       CA              1.9296182370       -5.3475418350        7.4642995170  PROA      9               0.0000000000
       122         9  LEU       HA              1.8525253172       -4.6386631337        6.6557020532  PROA      9               0.0000000000
       123         9  LEU       CB              1.8860114227       -4.5744404028        8.8142278065  PROA      9               0.0000000000
       124         9  LEU       HB1             2.7102018810       -3.8211904220        8.8212736605  PROA      9               0.0000000000
       125         9  LEU       HB2             2.0708700008       -5.2788684191        9.6566392777  PROA      9               0.0000000000
       126         9  LEU       CG              0.5942749720       -3.8010252473        9.1429551942  PROA      9               0.0000000000
       127         9  LEU       HG             -0.2156833254       -4.5327761595        9.3302673877  PROA      9               0.0000000000
       128         9  LEU       CD1             0.7997779380       -3.0144370387       10.4472396712  PROA      9               0.0000000000
       129         9  LEU       HD11            1.6080524563       -2.2630995463       10.3172528516  PROA      9               0.0000000000
       130         9  LEU       HD12            1.0982322922       -3.7033044649       11.2672365050  PROA      9               0.0000000000
       131         9  LEU       HD13           -0.1307265889       -2.4880452506       10.7458758314  PROA      9               0.0000000000
       132         9  LEU       CD2             0.1386913614       -2.8682642694        8.0146649902  PROA      9               0.0000000000
       133         9  LEU       HD21           -0.0809374355       -3.4464969291        7.0922086667  PROA      9               0.0000000000
       134         9  LEU       HD22            0.9318477465       -2.1209598441        7.7999548787  PROA      9               0.0000000000
       135         9  LEU       HD23           -0.7839734942       -2.3247834647        8.3145296332  PROA      9               0.0000000000
       136         9  LEU       C               3.3064523813       -5.9706471793        7.3684482423  PROA      9               0.0000000000
       137         9  LEU       O               4.2166570357       -5.4216003457        6.7493341807  PROA      9               0.0000000000
       138        10  THR       N               3.4742096243       -7.1792891678        7.9343843494  PROA      10              0.0000000000
       139        10  THR       HN              2.7639119965       -7.5985896232        8.5097891621  PROA      10              0.0000000000
       140        10  THR       CA              4.7603645396       -7.8382018487        7.9505036240  PROA      10              0.0000000000
       141        10  THR       HA              5.5494311041       -7.0980681646        7.9560413727  PROA      10              0.0000000000
       142        10  THR       CB              4.9539748230       -8.7212828377        9.1897055938  PROA      10              0.0000000000
       143        10  THR       HB              5.9798719410       -9.1630831338        9.2096440300  PROA      10              0.0000000000
       144        10  THR       OG1             4.0136420110       -9.7887092449        9.2883172056  PROA      10              0.0000000000
       145        10  THR       HG1             4.0128315250      -10.2433705690        8.4425138221  PROA      10              0.0000000000
       146        10  THR       CG2             4.7970677666       -7.8326917414       10.4293085610  PROA      10              0.0000000000
       147        10  THR       HG21            5.0108107073       -8.4263808287       11.3423382341  PROA      10              0.0000000000
       148        10  THR       HG22            3.7790250824       -7.4123180881       10.5253998569  PROA      10              0.0000000000
       149        10  THR       HG23            5.5254121892       -6.9936615251       10.3820744602  PROA      10              0.0000000000
       150        10  THR       C               4.9934219991       -8.7297743470        6.7673654412  PROA      10              0.0000000000
       151        10  THR       O               6.0184560938       -9.3824607968        6.7454207567  PROA      10              0.0000000000
       152        11  THR       N               4.0995031469       -8.8604087673        5.7728220013  PROA      11              0.0000000000
       153        11  THR       HN              3.2615823036       -8.3151781386        5.7607082866  PROA      11              0.0000000000
       154        11  THR       CA              4.3549752728       -9.8338729282        4.7051666939  PROA      11              0.0000000000
       155        11  THR       HA              5.4190719285       -9.8583990893        4.5464949661  PROA      11              0.0000000000
       156        11  THR       CB              3.8711363197      -11.2732604084        4.9627587485  PROA      11              0.0000000000
       157        11  THR       HB              3.9723204662      -11.8824313722        4.0321998994  PROA      11              0.0000000000
       158        11  THR       OG1             2.5126873726      -11.3104638029        5.3669360327  PROA      11              0.0000000000
       159        11  THR       HG1             2.4455594230      -10.8071078317        6.1997690589  PROA      11              0.0000000000
       160        11  THR       CG2             4.6925232033      -11.9909033515        6.0509588917  PROA      11              0.0000000000
       161        11  THR       HG21            4.5857269491      -11.5052216831        7.0409194621  PROA      11              0.0000000000
       162        11  THR       HG22            5.7669307502      -11.9914522480        5.7752989444  PROA      11              0.0000000000
       163        11  THR       HG23            4.3569354260      -13.0457952683        6.1414676376  PROA      11              0.0000000000
       164        11  THR       C               3.7973109007       -9.3611697575        3.3795217240  PROA      11              0.0000000000
       165        11  THR       O               4.5031524604       -9.2025992940        2.3819118454  PROA      11              0.0000000000
       166        12  GLY       N               2.4778830237       -9.1229485541        3.3068099079  PROA      12              0.0000000000
       167        12  GLY       HN              1.9042909841       -9.3483851866        4.0914841147  PROA      12              0.0000000000
       168        12  GLY       CA              1.8425932607       -8.6516788989        2.0787669604  PROA      12              0.0000000000
       169        12  GLY       HA1             0.7783086321       -8.6517859507        2.2553484763  PROA      12              0.0000000000
       170        12  GLY       HA2             2.1302096315       -9.3075780077        1.2660342303  PROA      12              0.0000000000
       171        12  GLY       C               2.2115869736       -7.2444853864        1.6751576354  PROA      12              0.0000000000
       172        12  GLY       O               2.4170137970       -6.9547370802        0.5012374761  PROA      12              0.0000000000
       173        13  LEU       N               2.2987378401       -6.3252373190        2.6493501963  PROA      13              0.0000000000
       174        13  LEU       HN              2.1032981479       -6.6021973138        3.5929154609  PROA      13              0.0000000000
       175        13  LEU       CA              2.6218804752       -4.9245046669        2.4233319532  PROA      13              0.0000000000
       176        13  LEU       HA              1.9170616117       -4.6101096206        1.6740810968  PROA      13              0.0000000000
       177        13  LEU       CB              2.3865800004       -4.0825346776        3.7133777371  PROA      13              0.0000000000
       178        13  LEU       HB1             3.3153730843       -3.5969522108        4.0526489784  PROA      13              0.0000000000
       179        13  LEU       HB2             2.1742314647       -4.8013119045        4.5329816597  PROA      13              0.0000000000
       180        13  LEU       CG              1.1994321726       -3.0726736943        3.7144789856  PROA      13              0.0000000000
       181        13  LEU       HG              0.2976221731       -3.7035323746        3.9234348938  PROA      13              0.0000000000
       182        13  LEU       CD1             1.3207890826       -2.0536829569        4.8664183542  PROA      13              0.0000000000
       183        13  LEU       HD11            1.9908516179       -1.2115120411        4.6065266501  PROA      13              0.0000000000
       184        13  LEU       HD12            1.7338254299       -2.5449415891        5.7697921509  PROA      13              0.0000000000
       185        13  LEU       HD13            0.3269720385       -1.6224612245        5.1124498627  PROA      13              0.0000000000
       186        13  LEU       CD2             0.8873027591       -2.3023360038        2.4176007153  PROA      13              0.0000000000
       187        13  LEU       HD21            1.3183233061       -2.7573289437        1.5085215585  PROA      13              0.0000000000
       188        13  LEU       HD22            1.2306061460       -1.2538695207        2.5096543333  PROA      13              0.0000000000
       189        13  LEU       HD23           -0.2169281678       -2.2519065479        2.2901645973  PROA      13              0.0000000000
       190        13  LEU       C               4.0002261688       -4.6509768502        1.7996917527  PROA      13              0.0000000000
       191        13  LEU       O               4.0643162397       -3.8613763336        0.8516500704  PROA      13              0.0000000000
       192        14  PRO       N               5.1188179746       -5.2781371498        2.2034054885  PROA      14              0.0000000000
       193        14  PRO       CD              5.2786985198       -5.8608398686        3.5413050584  PROA      14              0.0000000000
       194        14  PRO       HD1             4.8667663208       -6.8900025853        3.5264188642  PROA      14              0.0000000000
       195        14  PRO       HD2             4.7753763770       -5.2628278158        4.3303412353  PROA      14              0.0000000000
       196        14  PRO       CA              6.4176754819       -5.0589877252        1.5724421085  PROA      14              0.0000000000
       197        14  PRO       HA              6.6731822156       -4.0121717594        1.6573176468  PROA      14              0.0000000000
       198        14  PRO       CB              7.3549987210       -5.9791022537        2.3726466756  PROA      14              0.0000000000
       199        14  PRO       HB1             8.4155892443       -5.6628655806        2.3223273048  PROA      14              0.0000000000
       200        14  PRO       HB2             7.2787230720       -7.0391898270        2.0344264571  PROA      14              0.0000000000
       201        14  PRO       CG              6.7850918760       -5.9052573448        3.7851433068  PROA      14              0.0000000000
       202        14  PRO       HG1             7.0859437708       -6.7582627453        4.4212169721  PROA      14              0.0000000000
       203        14  PRO       HG2             7.1153331254       -4.9604183744        4.2719102381  PROA      14              0.0000000000
       204        14  PRO       C               6.4419110594       -5.4247826423        0.1088321904  PROA      14              0.0000000000
       205        14  PRO       O               7.0125040285       -4.7056513268       -0.7065002246  PROA      14              0.0000000000
       206        15  ALA       N               5.8280207783       -6.5456815529       -0.2795079914  PROA      15              0.0000000000
       207        15  ALA       HN              5.4061825419       -7.1715161141        0.3712285696  PROA      15              0.0000000000
       208        15  ALA       CA              5.8258148898       -6.9119207018       -1.6655715325  PROA      15              0.0000000000
       209        15  ALA       HA              6.7928703558       -6.6619968791       -2.0830405026  PROA      15              0.0000000000
       210        15  ALA       CB              5.7450700843       -8.4250126860       -1.7476974190  PROA      15              0.0000000000
       211        15  ALA       HB1             4.8107199151       -8.8371955699       -1.3097979742  PROA      15              0.0000000000
       212        15  ALA       HB2             6.6125354963       -8.8189642418       -1.1777357200  PROA      15              0.0000000000
       213        15  ALA       HB3             5.8945168659       -8.7618765483       -2.7928700537  PROA      15              0.0000000000
       214        15  ALA       C               4.8150104415       -6.1313686350       -2.5010651965  PROA      15              0.0000000000
       215        15  ALA       O               5.0598206540       -5.8712299597       -3.6816909777  PROA      15              0.0000000000
       216        16  LEU       N               3.7254764158       -5.6181647999       -1.8878851532  PROA      16              0.0000000000
       217        16  LEU       HN              3.5076783903       -5.8875865778       -0.9478351843  PROA      16              0.0000000000
       218        16  LEU       CA              2.8652269584       -4.6094697670       -2.4826048211  PROA      16              0.0000000000
       219        16  LEU       HA              2.5307396562       -5.0062911309       -3.4303449953  PROA      16              0.0000000000
       220        16  LEU       CB              1.6152971335       -4.3564009050       -1.6013488980  PROA      16              0.0000000000
       221        16  LEU       HB1             1.9430891547       -4.0609902703       -0.5817806868  PROA      16              0.0000000000
       222        16  LEU       HB2             1.0706163122       -5.3232277075       -1.5037237719  PROA      16              0.0000000000
       223        16  LEU       CG              0.6221291233       -3.2874793139       -2.1161903290  PROA      16              0.0000000000
       224        16  LEU       HG              1.1284116476       -2.2928198168       -2.1105452936  PROA      16              0.0000000000
       225        16  LEU       CD1             0.1549515566       -3.5768242401       -3.5542119646  PROA      16              0.0000000000
       226        16  LEU       HD11           -0.2873048525       -4.5909173414       -3.6145202598  PROA      16              0.0000000000
       227        16  LEU       HD12            1.0033901563       -3.5224499334       -4.2682673519  PROA      16              0.0000000000
       228        16  LEU       HD13           -0.6045498057       -2.8363248258       -3.8763126265  PROA      16              0.0000000000
       229        16  LEU       CD2            -0.5889298387       -3.1936005392       -1.1730446648  PROA      16              0.0000000000
       230        16  LEU       HD21           -0.2690757033       -2.9354649260       -0.1439731446  PROA      16              0.0000000000
       231        16  LEU       HD22           -1.1207126061       -4.1680127458       -1.1372617814  PROA      16              0.0000000000
       232        16  LEU       HD23           -1.3015976155       -2.4200596697       -1.5231418886  PROA      16              0.0000000000
       233        16  LEU       C               3.5937360031       -3.3031491570       -2.8077657762  PROA      16              0.0000000000
       234        16  LEU       O               3.4064114335       -2.7378300055       -3.8853300361  PROA      16              0.0000000000
       235        17  ILE       N               4.4971335847       -2.8027680954       -1.9223587301  PROA      17              0.0000000000
       236        17  ILE       HN              4.5768471585       -3.2144368925       -1.0107733962  PROA      17              0.0000000000
       237        17  ILE       CA              5.3474040831       -1.6411158440       -2.2229700096  PROA      17              0.0000000000
       238        17  ILE       HA              4.6813548522       -0.8488957166       -2.5198708489  PROA      17              0.0000000000
       239        17  ILE       CB              6.1810122756       -1.0914944052       -1.0433329948  PROA      17              0.0000000000
       240        17  ILE       HB              6.0198569475       -1.7521200713       -0.1614033030  PROA      17              0.0000000000
       241        17  ILE       CG2             7.7062452885       -1.0039965034       -1.2989042235  PROA      17              0.0000000000
       242        17  ILE       HG21            7.9399948095       -0.3234626167       -2.1411990477  PROA      17              0.0000000000
       243        17  ILE       HG22            8.1143333651       -2.0168127872       -1.5106982256  PROA      17              0.0000000000
       244        17  ILE       HG23            8.2269025326       -0.6388983022       -0.3894113422  PROA      17              0.0000000000
       245        17  ILE       CG1             5.6989118592        0.3412717477       -0.7293312715  PROA      17              0.0000000000
       246        17  ILE       HG11            4.5891641873        0.3821620478       -0.7172585788  PROA      17              0.0000000000
       247        17  ILE       HG12            6.0031578819        0.9956719879       -1.5787212181  PROA      17              0.0000000000
       248        17  ILE       CD              6.2626470312        0.9331766440        0.5758642809  PROA      17              0.0000000000
       249        17  ILE       HD1             7.2825170354        1.3405200237        0.4183511645  PROA      17              0.0000000000
       250        17  ILE       HD2             6.3224474222        0.1680012652        1.3749243883  PROA      17              0.0000000000
       251        17  ILE       HD3             5.6120898427        1.7665473676        0.9235786008  PROA      17              0.0000000000
       252        17  ILE       C               6.2265927134       -1.8403784097       -3.4316381837  PROA      17              0.0000000000
       253        17  ILE       O               6.3410858081       -0.9480327102       -4.2703034977  PROA      17              0.0000000000
       254        18  SER       N               6.8527645965       -3.0259296856       -3.5655786062  PROA      18              0.0000000000
       255        18  SER       HN              6.7573030407       -3.6972840267       -2.8302517358  PROA      18              0.0000000000
       256        18  SER       CA              7.6555151684       -3.3984215643       -4.7168292809  PROA      18              0.0000000000
       257        18  SER       HA              8.4470782523       -2.6714149295       -4.8275819354  PROA      18              0.0000000000
       258        18  SER       CB              8.2729254254       -4.8000984110       -4.5116861373  PROA      18              0.0000000000
       259        18  SER       HB1             7.4769187978       -5.5497223656       -4.3061820661  PROA      18              0.0000000000
       260        18  SER       HB2             8.9118339620       -4.7262375913       -3.6090194364  PROA      18              0.0000000000
       261        18  SER       OG              9.0392635476       -5.2490728402       -5.6300166358  PROA      18              0.0000000000
       262        18  SER       HG1             9.8584026802       -4.7403999134       -5.6259550722  PROA      18              0.0000000000
       263        18  SER       C               6.8692721009       -3.3939355356       -6.0031395140  PROA      18              0.0000000000
       264        18  SER       O               7.3244137015       -2.8986008134       -7.0338144696  PROA      18              0.0000000000
       265        19  TRP       N               5.6372352137       -3.9314311195       -5.9581157298  PROA      19              0.0000000000
       266        19  TRP       HN              5.2967665106       -4.3292143940       -5.1042046919  PROA      19              0.0000000000
       267        19  TRP       CA              4.7087177502       -3.8888090982       -7.0665484034  PROA      19              0.0000000000
       268        19  TRP       HA              5.1922478132       -4.3558271304       -7.9123373170  PROA      19              0.0000000000
       269        19  TRP       CB              3.4252873788       -4.6860641189       -6.7146718264  PROA      19              0.0000000000
       270        19  TRP       HB1             2.9389502097       -4.2338059486       -5.8240156705  PROA      19              0.0000000000
       271        19  TRP       HB2             3.7321673052       -5.7132097361       -6.4179666213  PROA      19              0.0000000000
       272        19  TRP       CG              2.4034924803       -4.7746565070       -7.8077534519  PROA      19              0.0000000000
       273        19  TRP       CD1             2.4225859300       -5.7067237201       -8.8025299171  PROA      19              0.0000000000
       274        19  TRP       HD1             3.1809417672       -6.4687384537       -8.8913612889  PROA      19              0.0000000000
       275        19  TRP       NE1             1.3209029954       -5.5609215657       -9.6108755063  PROA      19              0.0000000000
       276        19  TRP       HE1             1.0732894524       -6.1147756084      -10.3807029639  PROA      19              0.0000000000
       277        19  TRP       CE2             0.6065656881       -4.4862483098       -9.1962869052  PROA      19              0.0000000000
       278        19  TRP       CD2             1.2758635586       -3.9269208396       -8.0822210717  PROA      19              0.0000000000
       279        19  TRP       CE3             0.7812784205       -2.7611732078       -7.5046790263  PROA      19              0.0000000000
       280        19  TRP       HE3             1.2679580176       -2.3070992334       -6.6565236026  PROA      19              0.0000000000
       281        19  TRP       CZ3            -0.3341185030       -2.1518219327       -8.0833099955  PROA      19              0.0000000000
       282        19  TRP       HZ3            -0.6968253561       -1.2174840849       -7.6738779005  PROA      19              0.0000000000
       283        19  TRP       CZ2            -0.5618198352       -3.9412464643       -9.6991925444  PROA      19              0.0000000000
       284        19  TRP       HZ2            -1.0896816480       -4.4056604608      -10.5144093777  PROA      19              0.0000000000
       285        19  TRP       CH2            -1.0022675303       -2.7371473174       -9.1523386135  PROA      19              0.0000000000
       286        19  TRP       HH2            -1.8811025146       -2.2449096738       -9.5441364509  PROA      19              0.0000000000
       287        19  TRP       C               4.3425273430       -2.4822371077       -7.5195613505  PROA      19              0.0000000000
       288        19  TRP       O               4.3778903931       -2.1948599447       -8.7177563213  PROA      19              0.0000000000
       289        20  ILE       N               4.0318092279       -1.5666704819       -6.5720572979  PROA      20              0.0000000000
       290        20  ILE       HN              4.0149118656       -1.8393907951       -5.6076995282  PROA      20              0.0000000000
       291        20  ILE       CA              3.6888822374       -0.1775712016       -6.8529013069  PROA      20              0.0000000000
       292        20  ILE       HA              2.8393053896       -0.1664283594       -7.5218517232  PROA      20              0.0000000000
       293        20  ILE       CB              3.3443709786        0.5811308347       -5.5621774040  PROA      20              0.0000000000
       294        20  ILE       HB              4.1766318642        0.4116087504       -4.8359608985  PROA      20              0.0000000000
       295        20  ILE       CG2             3.2210880807        2.1074770114       -5.7939878083  PROA      20              0.0000000000
       296        20  ILE       HG21            2.4548444517        2.3227360891       -6.5671594714  PROA      20              0.0000000000
       297        20  ILE       HG22            4.1900053004        2.5490856960       -6.0962321589  PROA      20              0.0000000000
       298        20  ILE       HG23            2.9100490349        2.6131924938       -4.8553479288  PROA      20              0.0000000000
       299        20  ILE       CG1             2.0540253623        0.0441921589       -4.8977542422  PROA      20              0.0000000000
       300        20  ILE       HG11            1.9667568223       -1.0528321435       -5.0373725427  PROA      20              0.0000000000
       301        20  ILE       HG12            1.1696968736        0.5111064772       -5.3848393769  PROA      20              0.0000000000
       302        20  ILE       CD              2.0321407414        0.3157438805       -3.3889415243  PROA      20              0.0000000000
       303        20  ILE       HD1             2.2471038345        1.3817125015       -3.1720396511  PROA      20              0.0000000000
       304        20  ILE       HD2             2.7866712208       -0.3041257649       -2.8670943013  PROA      20              0.0000000000
       305        20  ILE       HD3             1.0479374028        0.0632380957       -2.9537982840  PROA      20              0.0000000000
       306        20  ILE       C               4.8265124244        0.5228129848       -7.5683501097  PROA      20              0.0000000000
       307        20  ILE       O               4.6454739513        1.2300212453       -8.5592247835  PROA      20              0.0000000000
       308        21  LYS       N               6.0601261864        0.2931976688       -7.0914448333  PROA      21              0.0000000000
       309        21  LYS       HN              6.1766642486       -0.2910522665       -6.2883611396  PROA      21              0.0000000000
       310        21  LYS       CA              7.2633540861        0.8089333480       -7.7012945966  PROA      21              0.0000000000
       311        21  LYS       HA              7.1470022040        1.8809220718       -7.7781523452  PROA      21              0.0000000000
       312        21  LYS       CB              8.4826013076        0.5647925278       -6.7903535422  PROA      21              0.0000000000
       313        21  LYS       HB1             9.4262810355        0.8376930762       -7.3180629535  PROA      21              0.0000000000
       314        21  LYS       HB2             8.5337927182       -0.5142017718       -6.5258109581  PROA      21              0.0000000000
       315        21  LYS       CG              8.3765413735        1.4187553870       -5.5183114246  PROA      21              0.0000000000
       316        21  LYS       HG1             7.3787294114        1.2671587185       -5.0437494569  PROA      21              0.0000000000
       317        21  LYS       HG2             8.4485261269        2.4899788960       -5.8165430948  PROA      21              0.0000000000
       318        21  LYS       CD              9.4606067698        1.0750456182       -4.4923301323  PROA      21              0.0000000000
       319        21  LYS       HD1            10.4379639278        1.1366975583       -5.0167550999  PROA      21              0.0000000000
       320        21  LYS       HD2             9.3065445495        0.0171229829       -4.1758014758  PROA      21              0.0000000000
       321        21  LYS       CE              9.4123768391        2.0072491399       -3.2784420045  PROA      21              0.0000000000
       322        21  LYS       HE1             8.4186065151        1.9370145576       -2.7828300826  PROA      21              0.0000000000
       323        21  LYS       HE2             9.5849085311        3.0624882663       -3.5851392357  PROA      21              0.0000000000
       324        21  LYS       NZ             10.4507111954        1.6294081478       -2.2937259188  PROA      21              0.0000000000
       325        21  LYS       HZ1            11.3909895782        1.8937646374       -2.6586041972  PROA      21              0.0000000000
       326        21  LYS       HZ2            10.4183428432        0.6020948593       -2.1395931264  PROA      21              0.0000000000
       327        21  LYS       HZ3            10.2794025145        2.1066026273       -1.3869583800  PROA      21              0.0000000000
       328        21  LYS       C               7.5017275742        0.3510515148       -9.1267074012  PROA      21              0.0000000000
       329        21  LYS       O               7.8093858292        1.1764780171       -9.9891169589  PROA      21              0.0000000000
       330        22  ARG       N               7.2957228267       -0.9494773178       -9.4359528512  PROA      22              0.0000000000
       331        22  ARG       HN              7.0399386799       -1.6025510715       -8.7184386364  PROA      22              0.0000000000
       332        22  ARG       CA              7.3634082291       -1.4407910168      -10.8007929026  PROA      22              0.0000000000
       333        22  ARG       HA              8.3202260920       -1.1384297302      -11.2064192856  PROA      22              0.0000000000
       334        22  ARG       CB              7.2717869425       -2.9807664566      -10.8756214449  PROA      22              0.0000000000
       335        22  ARG       HB1             7.2473856928       -3.2913966242      -11.9473533724  PROA      22              0.0000000000
       336        22  ARG       HB2             6.3273352135       -3.3088209012      -10.3884217174  PROA      22              0.0000000000
       337        22  ARG       CG              8.4789400871       -3.6787247746      -10.2172540071  PROA      22              0.0000000000
       338        22  ARG       HG1             8.4328556532       -3.5382346965       -9.1169555707  PROA      22              0.0000000000
       339        22  ARG       HG2             9.4096431058       -3.1761899622      -10.5677062820  PROA      22              0.0000000000
       340        22  ARG       CD              8.5910894317       -5.1666589605      -10.5525820111  PROA      22              0.0000000000
       341        22  ARG       HD1             9.4524864419       -5.6549965203      -10.0403036231  PROA      22              0.0000000000
       342        22  ARG       HD2             8.7369587512       -5.2859247615      -11.6523167921  PROA      22              0.0000000000
       343        22  ARG       NE              7.2886711681       -5.8083277382      -10.1820682362  PROA      22              0.0000000000
       344        22  ARG       HE              6.5085484681       -5.6471999296      -10.7733671279  PROA      22              0.0000000000
       345        22  ARG       CZ              7.0381293885       -6.3875551615       -9.0142331303  PROA      22              0.0000000000
       346        22  ARG       NH1             7.8901572029       -6.3501205032       -8.0191559850  PROA      22              0.0000000000
       347        22  ARG       HH11            8.5868079061       -5.6430599032       -8.0580824796  PROA      22              0.0000000000
       348        22  ARG       HH12            7.6193459261       -6.6240765228       -7.1053207962  PROA      22              0.0000000000
       349        22  ARG       NH2             5.9102354321       -7.0426410295       -8.8561217172  PROA      22              0.0000000000
       350        22  ARG       HH21            5.4201363881       -7.2966626277       -9.6792637178  PROA      22              0.0000000000
       351        22  ARG       HH22            5.8117534478       -7.5704855121       -8.0250614855  PROA      22              0.0000000000
       352        22  ARG       C               6.3300568448       -0.8398169898      -11.7295421414  PROA      22              0.0000000000
       353        22  ARG       O               6.6523644408       -0.4208121680      -12.8390468126  PROA      22              0.0000000000
       354        23  LYS       N               5.0710315168       -0.7460340199      -11.2666953667  PROA      23              0.0000000000
       355        23  LYS       HN              4.8607366568       -1.1122947271      -10.3556082868  PROA      23              0.0000000000
       356        23  LYS       CA              3.9675162077       -0.1124500633      -11.9565180165  PROA      23              0.0000000000
       357        23  LYS       HA              3.9038947279       -0.5704235590      -12.9338318424  PROA      23              0.0000000000
       358        23  LYS       CB              2.6518370854       -0.4094589878      -11.1990605808  PROA      23              0.0000000000
       359        23  LYS       HB1             1.8784825733        0.3696954647      -11.3569718767  PROA      23              0.0000000000
       360        23  LYS       HB2             2.8799679187       -0.4074757344      -10.1070393859  PROA      23              0.0000000000
       361        23  LYS       CG              2.0554911160       -1.7768115204      -11.5671609740  PROA      23              0.0000000000
       362        23  LYS       HG1             1.5396686460       -2.1883917554      -10.6693760312  PROA      23              0.0000000000
       363        23  LYS       HG2             2.8741435723       -2.4869407976      -11.8254423574  PROA      23              0.0000000000
       364        23  LYS       CD              1.0357031605       -1.6849325548      -12.7176491098  PROA      23              0.0000000000
       365        23  LYS       HD1             1.5025451849       -1.1549767965      -13.5782556947  PROA      23              0.0000000000
       366        23  LYS       HD2             0.1691235072       -1.1030028588      -12.3397350864  PROA      23              0.0000000000
       367        23  LYS       CE              0.5385534135       -3.0553766022      -13.1820188194  PROA      23              0.0000000000
       368        23  LYS       HE1             0.2123206241       -3.6700350982      -12.3181650739  PROA      23              0.0000000000
       369        23  LYS       HE2             1.3547138992       -3.5980434962      -13.7073105207  PROA      23              0.0000000000
       370        23  LYS       NZ             -0.6078826570       -2.9264035232      -14.1136473848  PROA      23              0.0000000000
       371        23  LYS       HZ1            -0.3600620986       -2.2405017833      -14.8500270334  PROA      23              0.0000000000
       372        23  LYS       HZ2            -1.4851938121       -2.6337266414      -13.6277406938  PROA      23              0.0000000000
       373        23  LYS       HZ3            -0.7373889042       -3.8757376721      -14.5613963476  PROA      23              0.0000000000
       374        23  LYS       C               4.1150291707        1.3707143666      -12.2343530211  PROA      23              0.0000000000
       375        23  LYS       O               3.6214915179        1.8791909525      -13.2459494831  PROA      23              0.0000000000
       376        24  ARG       N               4.7250632411        2.1174071033      -11.2986256918  PROA      24              0.0000000000
       377        24  ARG       HN              4.9514890424        1.7064418744      -10.4088090030  PROA      24              0.0000000000
       378        24  ARG       CA              5.1200109784        3.4963976472      -11.4899181695  PROA      24              0.0000000000
       379        24  ARG       HA              4.2606523464        4.0157667558      -11.8924970730  PROA      24              0.0000000000
       380        24  ARG       CB              5.4379574546        4.1696476477      -10.1314384044  PROA      24              0.0000000000
       381        24  ARG       HB1             5.8853716362        5.1587012513      -10.3428957766  PROA      24              0.0000000000
       382        24  ARG       HB2             6.1725971887        3.5527809671       -9.5720038921  PROA      24              0.0000000000
       383        24  ARG       CG              4.1687357309        4.4069361461       -9.2782786383  PROA      24              0.0000000000
       384        24  ARG       HG1             3.6298341751        3.4382735141       -9.1741698744  PROA      24              0.0000000000
       385        24  ARG       HG2             3.4865245917        5.0948054912       -9.8247017108  PROA      24              0.0000000000
       386        24  ARG       CD              4.3852898780        4.9385148364       -7.8576179564  PROA      24              0.0000000000
       387        24  ARG       HD1             4.9415798692        4.1915968140       -7.2473369074  PROA      24              0.0000000000
       388        24  ARG       HD2             3.4056757257        5.1382932329       -7.3641482148  PROA      24              0.0000000000
       389        24  ARG       NE              5.2276214219        6.1643548109       -7.9681086077  PROA      24              0.0000000000
       390        24  ARG       HE              6.1695067116        6.0101482409       -8.2468339897  PROA      24              0.0000000000
       391        24  ARG       CZ              4.8821256149        7.4160972731       -7.7041923177  PROA      24              0.0000000000
       392        24  ARG       NH1             3.6930165580        7.7424876143       -7.2585016402  PROA      24              0.0000000000
       393        24  ARG       HH11            3.5463425467        8.6617526236       -6.9147013052  PROA      24              0.0000000000
       394        24  ARG       HH12            3.0744702826        7.0108651863       -6.9918013112  PROA      24              0.0000000000
       395        24  ARG       NH2             5.7698305872        8.3750456280       -7.8662679486  PROA      24              0.0000000000
       396        24  ARG       HH21            6.6296445046        8.1647439278       -8.3210968487  PROA      24              0.0000000000
       397        24  ARG       HH22            5.4914237460        9.3179448453       -7.7523983770  PROA      24              0.0000000000
       398        24  ARG       C               6.2071649686        3.7096356591      -12.5374427342  PROA      24              0.0000000000
       399        24  ARG       O               6.1114704568        4.5949582287      -13.3814989998  PROA      24              0.0000000000
       400        25  GLN       N               7.2539087853        2.8651070492      -12.5518111078  PROA      25              0.0000000000
       401        25  GLN       HN              7.3462981647        2.1652804433      -11.8409971683  PROA      25              0.0000000000
       402        25  GLN       CA              8.3077671852        2.9381601161      -13.5549473330  PROA      25              0.0000000000
       403        25  GLN       HA              8.6413467858        3.9668102425      -13.6021197591  PROA      25              0.0000000000
       404        25  GLN       CB              9.5210145674        2.1048191083      -13.0966306511  PROA      25              0.0000000000
       405        25  GLN       HB1            10.2680016885        2.0176071809      -13.9205203302  PROA      25              0.0000000000
       406        25  GLN       HB2             9.1523939780        1.0853976794      -12.8357090913  PROA      25              0.0000000000
       407        25  GLN       CG             10.1949561868        2.7677557810      -11.8682328750  PROA      25              0.0000000000
       408        25  GLN       HG1             9.4358095259        3.0129342566      -11.0935485044  PROA      25              0.0000000000
       409        25  GLN       HG2            10.6920385922        3.7102837321      -12.1773904375  PROA      25              0.0000000000
       410        25  GLN       CD             11.2341306237        1.8946607712      -11.1688932341  PROA      25              0.0000000000
       411        25  GLN       OE1            11.5703571917        2.1468253194      -10.0118083622  PROA      25              0.0000000000
       412        25  GLN       NE2            11.7286027906        0.8326279236      -11.8395539193  PROA      25              0.0000000000
       413        25  GLN       HE21           12.2636289012        0.1902041088      -11.3022301008  PROA      25              0.0000000000
       414        25  GLN       HE22           11.3936529496        0.6399319726      -12.7593378100  PROA      25              0.0000000000
       415        25  GLN       C               7.8711191339        2.6162048114      -14.9785509382  PROA      25              0.0000000000
       416        25  GLN       O               8.3840320686        3.1940199143      -15.9340280333  PROA      25              0.0000000000
       417        26  GLN       N               6.8540536810        1.7456617491      -15.1435199692  PROA      26              0.0000000000
       418        26  GLN       HN              6.5065337624        1.2212724940      -14.3697334378  PROA      26              0.0000000000
       419        26  GLN       CA              6.1963086456        1.5518768362      -16.4284153778  PROA      26              0.0000000000
       420        26  GLN       HA              6.9629204885        1.2700411039      -17.1372203639  PROA      26              0.0000000000
       421        26  GLN       CB              5.1381022601        0.4265062779      -16.3792422518  PROA      26              0.0000000000
       422        26  GLN       HB1             4.6160926719        0.3800899722      -17.3645752647  PROA      26              0.0000000000
       423        26  GLN       HB2             4.3845061180        0.6960204787      -15.6055335816  PROA      26              0.0000000000
       424        26  GLN       CG              5.7063286395       -0.9756543825      -16.0741039314  PROA      26              0.0000000000
       425        26  GLN       HG1             6.2015088008       -0.9856400934      -15.0861397195  PROA      26              0.0000000000
       426        26  GLN       HG2             6.4438837542       -1.2703762985      -16.8477215836  PROA      26              0.0000000000
       427        26  GLN       CD              4.5710566046       -1.9937843156      -16.0718531667  PROA      26              0.0000000000
       428        26  GLN       OE1             3.4575765186       -1.7336598951      -16.5305079603  PROA      26              0.0000000000
       429        26  GLN       NE2             4.8302482836       -3.2022168343      -15.5283844578  PROA      26              0.0000000000
       430        26  GLN       HE21            5.6853037225       -3.3661946179      -15.0507846865  PROA      26              0.0000000000
       431        26  GLN       HE22            4.0955622708       -3.8722936579      -15.6276429174  PROA      26              0.0000000000
       432        26  GLN       C               5.5029226224        2.8116334372      -17.0400613206  PROA      26              0.0000000000
       433        26  GLN       O               5.5291349295        2.9885922164      -18.2605222784  PROA      26              0.0000000000
       434        26  GLN       NT              4.8901194821        3.6802098981      -16.2005246822  PROA      26              0.0000000000
       435        26  GLN       HT1             5.1392035809        3.6336187666      -15.2364228313  PROA      26              0.0000000000
       436        26  GLN       HT2             4.6227992300        4.5631783903      -16.5821644651  PROA      26              0.0000000000
       437        27  GLY       N               9.2114519111        8.7777026945       12.7686857966  P2PROA    1               0.0000000000
       438        27  GLY       HT1            10.0391962631        9.3879464796       12.9340279073  P2PROA    1               0.0000000000
       439        27  GLY       HT2             8.5255704740        9.2959292059       12.1798814346  P2PROA    1               0.0000000000
       440        27  GLY       HT3             9.5084211271        7.9448937283       12.2168546673  P2PROA    1               0.0000000000
       441        27  GLY       CA              8.5543352806        8.3548909321       14.0639621292  P2PROA    1               0.0064986403
       442        27  GLY       HA1             8.3366446663        9.2537051210       14.6274771642  P2PROA    1               0.0073876218
       443        27  GLY       HA2             9.2186507525        7.6705484487       14.5708979943  P2PROA    1               0.0116660646
       444        27  GLY       C               7.2492475143        7.6511182396       13.8317020179  P2PROA    1               0.0000000000
       445        27  GLY       O               6.7781729715        7.6484877127       12.7015618316  P2PROA    1               0.0000000000
       446        28  ILE       N               6.6179813417        7.0842196704       14.8878600641  P2PROA    2               0.0247572030
       447        28  ILE       HN              7.0303548274        7.0120562264       15.7913236429  P2PROA    2               0.0389923129
       448        28  ILE       CA              5.2744344079        6.5001958158       14.8168037923  P2PROA    2               0.0228748912
       449        28  ILE       HA              5.2820327606        5.7193365754       14.0688906467  P2PROA    2               0.0000000000
       450        28  ILE       CB              4.8265322370        5.9006565692       16.1574851998  P2PROA    2               0.0455213191
       451        28  ILE       HB              4.8134807691        6.7043967922       16.9348557759  P2PROA    2               0.0614129276
       452        28  ILE       CG2             3.3791581743        5.3467968887       16.0734890393  P2PROA    2               0.0457195750
       453        28  ILE       HG21            3.2974923764        4.5960738393       15.2591423125  P2PROA    2               0.0326596660
       454        28  ILE       HG22            2.6343256730        6.1480983096       15.8853508071  P2PROA    2               0.0514210363
       455        28  ILE       HG23            3.1011467886        4.8555414988       17.0317977996  P2PROA    2               0.0612269084
       456        28  ILE       CG1             5.8047756450        4.8133984964       16.6742064508  P2PROA    2               0.0479681771
       457        28  ILE       HG11            5.3532101124        4.3587701297       17.5887057523  P2PROA    2               0.0608814440
       458        28  ILE       HG12            6.7549124927        5.2903378622       16.9987373267  P2PROA    2               0.0613863534
       459        28  ILE       CD              6.1288400727        3.6834862596       15.6938137321  P2PROA    2               0.0362222720
       460        28  ILE       HD1             6.7346797182        4.0494988091       14.8402781739  P2PROA    2               0.0063246546
       461        28  ILE       HD2             5.2002977217        3.2221007546       15.2932531668  P2PROA    2               0.0158913590
       462        28  ILE       HD3             6.7046781520        2.8816551581       16.2117711740  P2PROA    2               0.0484978766
       463        28  ILE       C               4.2436434672        7.5111640359       14.3511601935  P2PROA    2               0.0107520556
       464        28  ILE       O               3.4175941683        7.2093430283       13.4989494633  P2PROA    2               0.0000000000
       465        29  GLY       N               4.3010453225        8.7729596064       14.8483222099  P2PROA    3               0.0202677233
       466        29  GLY       HN              4.8719822654        8.9822692444       15.6381079018  P2PROA    3               0.0000000000
       467        29  GLY       CA              3.3884019047        9.8275241495       14.4009715210  P2PROA    3               0.0179101960
       468        29  GLY       HA1             3.6710605642       10.7518023857       14.8833064110  P2PROA    3               0.0239167611
       469        29  GLY       HA2             2.3830599785        9.5230836953       14.6589075466  P2PROA    3               0.0195585957
       470        29  GLY       C               3.3913553816       10.0862523921       12.9099791427  P2PROA    3               0.0000000000
       471        29  GLY       O               2.3461330661       10.3182511907       12.3080124263  P2PROA    3               0.0000000000
       472        30  ALA       N               4.5823527305       10.0288732650       12.2770969742  P2PROA    4               0.0000000000
       473        30  ALA       HN              5.3856148172        9.7923555077       12.8023657695  P2PROA    4               0.0000000000
       474        30  ALA       CA              4.7454282375       10.1813308151       10.8386384671  P2PROA    4               0.0000000000
       475        30  ALA       HA              4.3434279712       11.1384981489       10.5354099870  P2PROA    4               0.0000000000
       476        30  ALA       CB              6.2501628521       10.0819962857       10.4872173468  P2PROA    4               0.0000000000
       477        30  ALA       HB1             6.6439781717        9.0604416001       10.6632907244  P2PROA    4               0.0000000000
       478        30  ALA       HB2             6.8478885472       10.7916456061       11.0906111438  P2PROA    4               0.0000000000
       479        30  ALA       HB3             6.4149044261       10.3235767896        9.4131622913  P2PROA    4               0.0000000000
       480        30  ALA       C               4.0434009857        9.1036148510       10.0284423626  P2PROA    4               0.0000000000
       481        30  ALA       O               3.2930518675        9.3664725055        9.0858675594  P2PROA    4               0.0000000000
       482        31  VAL       N               4.2724013648        7.8360921255       10.4353966352  P2PROA    5               0.0000000000
       483        31  VAL       HN              4.8560581779        7.6690174789       11.2218541519  P2PROA    5               0.0000000000
       484        31  VAL       CA              3.6883312703        6.6453963624        9.8493730602  P2PROA    5               0.0000000000
       485        31  VAL       HA              3.9000929388        6.6532517610        8.7917720647  P2PROA    5               0.0000000000
       486        31  VAL       CB              4.2824049112        5.3686810794       10.4521500648  P2PROA    5               0.0000000000
       487        31  VAL       HB              4.1052901599        5.3530672097       11.5539380243  P2PROA    5               0.0000000000
       488        31  VAL       CG1             3.6329895973        4.1142837695        9.8308974584  P2PROA    5               0.0000000000
       489        31  VAL       HG11            3.7584999902        4.1176865848        8.7274688476  P2PROA    5               0.0000000000
       490        31  VAL       HG12            2.5465566517        4.0549176039       10.0539833673  P2PROA    5               0.0000000000
       491        31  VAL       HG13            4.1101204912        3.1951186459       10.2356426676  P2PROA    5               0.0000000000
       492        31  VAL       CG2             5.8054425936        5.3328987425       10.2074750842  P2PROA    5               0.0000000000
       493        31  VAL       HG21            6.3153189670        6.1855004121       10.6953028487  P2PROA    5               0.0000000000
       494        31  VAL       HG22            6.0183442112        5.3629053856        9.1176902338  P2PROA    5               0.0000000000
       495        31  VAL       HG23            6.2287095419        4.3890440828       10.6134391459  P2PROA    5               0.0000000000
       496        31  VAL       C               2.1822182054        6.6734939268       10.0203988389  P2PROA    5               0.0000000000
       497        31  VAL       O               1.4047554276        6.4609290256        9.0942509900  P2PROA    5               0.0000000000
       498        32  LEU       N               1.7166779662        7.0317736409       11.2251228205  P2PROA    6               0.0000000000
       499        32  LEU       HN              2.3637170513        7.2082532367       11.9698902312  P2PROA    6               0.0000000000
       500        32  LEU       CA              0.3205943838        7.1662710813       11.5624985626  P2PROA    6               0.0000000000
       501        32  LEU       HA             -0.1488347264        6.2170428399       11.3459182928  P2PROA    6               0.0000000000
       502        32  LEU       CB              0.2151580390        7.4438880562       13.0772897889  P2PROA    6               0.0000000000
       503        32  LEU       HB1             0.7571655880        8.3856097347       13.3164241014  P2PROA    6               0.0000000000
       504        32  LEU       HB2             0.7441847467        6.6173142371       13.6034097523  P2PROA    6               0.0000000000
       505        32  LEU       CG             -1.2061570740        7.5406023169       13.6601281737  P2PROA    6               0.0000000000
       506        32  LEU       HG             -1.7133204113        8.4396186050       13.2321798321  P2PROA    6               0.0000000000
       507        32  LEU       CD1            -2.0604457479        6.3061097215       13.3297916835  P2PROA    6               0.0000000000
       508        32  LEU       HD11           -1.5567878335        5.3850180466       13.6919718335  P2PROA    6               0.0000000000
       509        32  LEU       HD12           -2.2233723464        6.2124244452       12.2362037731  P2PROA    6               0.0000000000
       510        32  LEU       HD13           -3.0534376145        6.3873008766       13.8196534343  P2PROA    6               0.0000000000
       511        32  LEU       CD2            -1.1170329465        7.7216097955       15.1826573272  P2PROA    6               0.0331577353
       512        32  LEU       HD21           -0.5143731526        8.6189117216       15.4357058696  P2PROA    6               0.0395158041
       513        32  LEU       HD22           -0.6359511982        6.8342270112       15.6450159074  P2PROA    6               0.0421466479
       514        32  LEU       HD23           -2.1306877804        7.8465217828       15.6179075594  P2PROA    6               0.0448306399
       515        32  LEU       C              -0.4202362495        8.2025893821       10.7221445009  P2PROA    6               0.0000000000
       516        32  LEU       O              -1.5297870509        7.9579761919       10.2355834903  P2PROA    6               0.0000000000
       517        33  LYS       N               0.1894739727        9.3765116371       10.4415068312  P2PROA    7               0.0000000000
       518        33  LYS       HN              1.0640506839        9.6246066689       10.8671082106  P2PROA    7               0.0000000000
       519        33  LYS       CA             -0.3841587412       10.2887521676        9.4593295390  P2PROA    7               0.0000000000
       520        33  LYS       HA             -1.3774428253       10.5546510928        9.7954500167  P2PROA    7               0.0000000000
       521        33  LYS       CB              0.4152565016       11.6067301283        9.2973939381  P2PROA    7               0.0000000000
       522        33  LYS       HB1             0.0551354852       12.1509547430        8.3896743896  P2PROA    7               0.0000000000
       523        33  LYS       HB2             1.4890030276       11.3635691735        9.1316604258  P2PROA    7               0.0000000000
       524        33  LYS       CG              0.2751260682       12.5892361312       10.4658764122  P2PROA    7               0.0000000000
       525        33  LYS       HG1             0.7218959616       12.1431767085       11.3820007563  P2PROA    7               0.0000000000
       526        33  LYS       HG2            -0.8095404174       12.7621903016       10.6586174629  P2PROA    7               0.0000000000
       527        33  LYS       CD              0.9601804985       13.9219819194       10.1199570894  P2PROA    7               0.0000000000
       528        33  LYS       HD1             0.4670607516       14.3376784651        9.2109417349  P2PROA    7               0.0000000000
       529        33  LYS       HD2             2.0151959683       13.6959092864        9.8484459320  P2PROA    7               0.0000000000
       530        33  LYS       CE              0.9183241200       14.9519651980       11.2490284711  P2PROA    7               0.0000000000
       531        33  LYS       HE1             1.4362877746       14.5477726464       12.1484269580  P2PROA    7               0.0000000000
       532        33  LYS       HE2            -0.1289317125       15.2113853501       11.5213349257  P2PROA    7               0.0000000000
       533        33  LYS       NZ              1.6158060187       16.1859355513       10.8343636825  P2PROA    7               0.0000000000
       534        33  LYS       HZ1             0.9546297668       16.9055731035       10.4932300944  P2PROA    7               0.0000000000
       535        33  LYS       HZ2             2.3194645358       15.9849761325       10.0985601474  P2PROA    7               0.0000000000
       536        33  LYS       HZ3             2.1157924732       16.5933958811       11.6753240869  P2PROA    7               0.0000000000
       537        33  LYS       C              -0.5593974459        9.6954206418        8.0645884902  P2PROA    7               0.0000000000
       538        33  LYS       O              -1.6091063931        9.8540572409        7.4436715356  P2PROA    7               0.0000000000
       539        34  VAL       N               0.4383632102        8.9672950168        7.5225481593  P2PROA    8               0.0000000000
       540        34  VAL       HN              1.3043694256        8.8447149446        8.0063786725  P2PROA    8               0.0000000000
       541        34  VAL       CA              0.2933855949        8.3418364076        6.2103126988  P2PROA    8               0.0000000000
       542        34  VAL       HA             -0.1294906193        9.1027669830        5.5677501786  P2PROA    8               0.0000000000
       543        34  VAL       CB              1.5902912715        7.9501596963        5.4988719608  P2PROA    8               0.0000000000
       544        34  VAL       HB              1.3450272361        7.6235815389        4.4577966812  P2PROA    8               0.0000000000
       545        34  VAL       CG1             2.4955337646        9.1934918814        5.3907628631  P2PROA    8               0.0000000000
       546        34  VAL       HG11            2.8305816393        9.5236628266        6.3979794268  P2PROA    8               0.0000000000
       547        34  VAL       HG12            1.9552795564       10.0378616479        4.9129720988  P2PROA    8               0.0000000000
       548        34  VAL       HG13            3.3991094309        8.9639644326        4.7868376177  P2PROA    8               0.0000000000
       549        34  VAL       CG2             2.3287449292        6.8033143238        6.2002900854  P2PROA    8               0.0000000000
       550        34  VAL       HG21            1.6872720685        5.9095794405        6.3435823833  P2PROA    8               0.0000000000
       551        34  VAL       HG22            2.6890913889        7.1543806565        7.1855754641  P2PROA    8               0.0000000000
       552        34  VAL       HG23            3.2201033764        6.5002085326        5.6101151230  P2PROA    8               0.0000000000
       553        34  VAL       C              -0.7244829976        7.2094696326        6.1758182281  P2PROA    8               0.0000000000
       554        34  VAL       O              -1.4468369578        7.0657939521        5.1915350616  P2PROA    8               0.0000000000
       555        35  LEU       N              -0.8687955994        6.4130618676        7.2592494247  P2PROA    9               0.0000000000
       556        35  LEU       HN             -0.2310349792        6.5123701336        8.0270191626  P2PROA    9               0.0000000000
       557        35  LEU       CA             -1.8932603685        5.3777471955        7.3634673025  P2PROA    9               0.0000000000
       558        35  LEU       HA             -1.7627306087        4.6903432415        6.5421290807  P2PROA    9               0.0000000000
       559        35  LEU       CB             -1.8629045093        4.5961919598        8.7040123759  P2PROA    9               0.0000000000
       560        35  LEU       HB1            -2.7139797821        3.8734227504        8.7248166999  P2PROA    9               0.0000000000
       561        35  LEU       HB2            -2.0016051363        5.3055260218        9.5500761856  P2PROA    9               0.0000000000
       562        35  LEU       CG             -0.5898015343        3.7718488949        8.9687831566  P2PROA    9               0.0000000000
       563        35  LEU       HG              0.2726311781        4.4606210446        9.0573886269  P2PROA    9               0.0000000000
       564        35  LEU       CD1            -0.7200620337        3.0251755469       10.3031533475  P2PROA    9               0.0000000000
       565        35  LEU       HD11           -1.5595660906        2.2997912642       10.2548822326  P2PROA    9               0.0000000000
       566        35  LEU       HD12           -0.9189561944        3.7443323271       11.1263845191  P2PROA    9               0.0000000000
       567        35  LEU       HD13            0.2155822658        2.4703973944       10.5323040339  P2PROA    9               0.0000000000
       568        35  LEU       CD2            -0.2660298785        2.7958955026        7.8313738746  P2PROA    9               0.0000000000
       569        35  LEU       HD21           -0.0661497954        3.3474862892        6.8883743654  P2PROA    9               0.0000000000
       570        35  LEU       HD22           -1.1136944251        2.0965171235        7.6717654756  P2PROA    9               0.0000000000
       571        35  LEU       HD23            0.6378745654        2.2001382901        8.0810196539  P2PROA    9               0.0000000000
       572        35  LEU       C              -3.2852323418        5.9359440494        7.2182084159  P2PROA    9               0.0000000000
       573        35  LEU       O              -4.1671985528        5.3268908114        6.6275263238  P2PROA    9               0.0000000000
       574        36  THR       N              -3.5090365408        7.1286493299        7.7681018098  P2PROA    10              0.0000000000
       575        36  THR       HN             -2.7650460353        7.5992905336        8.2373555797  P2PROA    10              0.0000000000
       576        36  THR       CA             -4.8249271393        7.7327140694        7.7995959738  P2PROA    10              0.0000000000
       577        36  THR       HA             -5.5731311435        6.9546441003        7.8842553837  P2PROA    10              0.0000000000
       578        36  THR       CB             -4.9443229531        8.6277963913        9.0123899956  P2PROA    10              0.0000000000
       579        36  THR       HB             -5.9413036617        9.1325793267        9.0343391307  P2PROA    10              0.0000000000
       580        36  THR       OG1            -3.9226653873        9.6141076646        9.0189969142  P2PROA    10              0.0000000000
       581        36  THR       HG1            -3.1264613904        9.1525258295        9.3101007352  P2PROA    10              0.0000000000
       582        36  THR       CG2            -4.7685129945        7.7810051409       10.2922362791  P2PROA    10              0.0000000000
       583        36  THR       HG21           -4.2106795150        8.3308890400       11.0756120520  P2PROA    10              0.0000000000
       584        36  THR       HG22           -4.2334985413        6.8273942063       10.1145019373  P2PROA    10              0.0000000000
       585        36  THR       HG23           -5.7695860645        7.5320444172       10.7048955561  P2PROA    10              0.0000000000
       586        36  THR       C              -5.1812262507        8.5281437916        6.5559168289  P2PROA    10              0.0000000000
       587        36  THR       O              -6.3605648661        8.7224857328        6.2714517226  P2PROA    10              0.0000000000
       588        37  THR       N              -4.1873094663        8.9935842138        5.7703316124  P2PROA    11              0.0000000000
       589        37  THR       HN             -3.2428332622        8.8043304451        6.0210111789  P2PROA    11              0.0000000000
       590        37  THR       CA             -4.4421702088        9.9215917087        4.6656902616  P2PROA    11              0.0000000000
       591        37  THR       HA             -5.5058771869       10.0078737695        4.4973944219  P2PROA    11              0.0000000000
       592        37  THR       CB             -3.9064559440       11.3265950489        4.9583660714  P2PROA    11              0.0000000000
       593        37  THR       HB             -4.0099414710       11.9894624894        4.0674769476  P2PROA    11              0.0000000000
       594        37  THR       OG1            -2.5418945805       11.3047353892        5.3561176666  P2PROA    11              0.0000000000
       595        37  THR       HG1            -2.5119535235       10.8389826090        6.2104263784  P2PROA    11              0.0000000000
       596        37  THR       CG2            -4.7002561217       11.9495414586        6.1185793966  P2PROA    11              0.0000000000
       597        37  THR       HG21           -4.4817873228       11.4380144787        7.0795836421  P2PROA    11              0.0000000000
       598        37  THR       HG22           -5.7890480478       11.8591664781        5.9270396326  P2PROA    11              0.0000000000
       599        37  THR       HG23           -4.4496410647       13.0253569279        6.2323569418  P2PROA    11              0.0000000000
       600        37  THR       C              -3.8811709385        9.4373278757        3.3394424846  P2PROA    11              0.0000000000
       601        37  THR       O              -4.5851738772        9.3495368475        2.3317805264  P2PROA    11              0.0000000000
       602        38  GLY       N              -2.5848237334        9.0698876850        3.2951468997  P2PROA    12              0.0000000000
       603        38  GLY       HN             -2.0433415173        9.1562305243        4.1261704247  P2PROA    12              0.0000000000
       604        38  GLY       CA             -1.9151445106        8.6136842557        2.0812555537  P2PROA    12              0.0000000000
       605        38  GLY       HA1            -0.8546371045        8.6655208740        2.2699119742  P2PROA    12              0.0000000000
       606        38  GLY       HA2            -2.2157631882        9.2464342250        1.2563863240  P2PROA    12              0.0000000000
       607        38  GLY       C              -2.2167484905        7.1911802018        1.6797520064  P2PROA    12              0.0000000000
       608        38  GLY       O              -2.3903871702        6.9064372080        0.4989469812  P2PROA    12              0.0000000000
       609        39  LEU       N              -2.2885423148        6.2513512329        2.6454249005  P2PROA    13              0.0000000000
       610        39  LEU       HN             -2.0972400214        6.5067343153        3.5981952054  P2PROA    13              0.0000000000
       611        39  LEU       CA             -2.6095462090        4.8504376226        2.3841312998  P2PROA    13              0.0000000000
       612        39  LEU       HA             -1.9033246159        4.5513074113        1.6235360232  P2PROA    13              0.0000000000
       613        39  LEU       CB             -2.3478942631        3.9477685433        3.6256867896  P2PROA    13              0.0000000000
       614        39  LEU       HB1            -3.2927011029        3.6753545584        4.1391083172  P2PROA    13              0.0000000000
       615        39  LEU       HB2            -1.7465728095        4.5368297036        4.3539467728  P2PROA    13              0.0000000000
       616        39  LEU       CG             -1.5488197815        2.6442608318        3.3607867020  P2PROA    13              0.0000000000
       617        39  LEU       HG             -0.4701581292        2.9198839164        3.2632893053  P2PROA    13              0.0000000000
       618        39  LEU       CD1            -1.7014108516        1.6890193129        4.5532719123  P2PROA    13              0.0000000000
       619        39  LEU       HD11           -2.7570547693        1.3546981841        4.6400017183  P2PROA    13              0.0000000000
       620        39  LEU       HD12           -1.4250295129        2.2099579207        5.4892695476  P2PROA    13              0.0000000000
       621        39  LEU       HD13           -1.0537279263        0.7958716458        4.4331247623  P2PROA    13              0.0000000000
       622        39  LEU       CD2            -1.9466910746        1.8935656049        2.0841747491  P2PROA    13              0.0000000000
       623        39  LEU       HD21           -1.7499532859        2.4939611964        1.1731894044  P2PROA    13              0.0000000000
       624        39  LEU       HD22           -3.0289286360        1.6495837776        2.1185026619  P2PROA    13              0.0000000000
       625        39  LEU       HD23           -1.3780390190        0.9433290797        1.9982810519  P2PROA    13              0.0000000000
       626        39  LEU       C              -3.9994565698        4.6097657334        1.7638361750  P2PROA    13              0.0000000000
       627        39  LEU       O              -4.0968053085        3.8165654995        0.8211863525  P2PROA    13              0.0000000000
       628        40  PRO       N              -5.0963854870        5.2720932419        2.1532164469  P2PROA    14              0.0000000000
       629        40  PRO       CD             -5.2633505378        5.8136775653        3.5109528222  P2PROA    14              0.0000000000
       630        40  PRO       HD1            -4.7819619467        6.8126240649        3.5745254132  P2PROA    14              0.0000000000
       631        40  PRO       HD2            -4.8343869699        5.1387793141        4.2826008050  P2PROA    14              0.0000000000
       632        40  PRO       CA             -6.3890727442        5.0653797860        1.5018145489  P2PROA    14              0.0000000000
       633        40  PRO       HA             -6.6511791032        4.0191618956        1.5649572294  P2PROA    14              0.0000000000
       634        40  PRO       CB             -7.3214205638        5.9817171444        2.3050773823  P2PROA    14              0.0000000000
       635        40  PRO       HB1            -8.3819756185        5.6600829502        2.2489460194  P2PROA    14              0.0000000000
       636        40  PRO       HB2            -7.2362491389        7.0421105270        1.9689953522  P2PROA    14              0.0000000000
       637        40  PRO       CG             -6.7698920760        5.9284246864        3.7230995822  P2PROA    14              0.0000000000
       638        40  PRO       HG1            -7.0539117898        6.8091748169        4.3363420021  P2PROA    14              0.0000000000
       639        40  PRO       HG2            -7.1414712541        5.0008761008        4.2091714462  P2PROA    14              0.0000000000
       640        40  PRO       C              -6.3992639049        5.4760683995        0.0388456909  P2PROA    14              0.0000000000
       641        40  PRO       O              -6.9439637859        4.7654536628       -0.8043947526  P2PROA    14              0.0000000000
       642        41  ALA       N              -5.7778606096        6.6186240346       -0.2883006563  P2PROA    15              0.0000000000
       643        41  ALA       HN             -5.3876908385        7.1860110053        0.4331653367  P2PROA    15              0.0000000000
       644        41  ALA       CA             -5.6006701706        7.0985097771       -1.6405296688  P2PROA    15              0.0000000000
       645        41  ALA       HA             -6.5768401129        7.2038247388       -2.0948350113  P2PROA    15              0.0000000000
       646        41  ALA       CB             -4.9074616170        8.4641477077       -1.5487830799  P2PROA    15              0.0000000000
       647        41  ALA       HB1            -3.8692790466        8.3708440729       -1.1623732981  P2PROA    15              0.0000000000
       648        41  ALA       HB2            -5.4629027945        9.1177453995       -0.8399703189  P2PROA    15              0.0000000000
       649        41  ALA       HB3            -4.8788093212        8.9620530441       -2.5360112304  P2PROA    15              0.0000000000
       650        41  ALA       C              -4.7818096330        6.1603450767       -2.5207132309  P2PROA    15              0.0000000000
       651        41  ALA       O              -5.1234800406        5.8741620538       -3.6720675180  P2PROA    15              0.0000000000
       652        42  LEU       N              -3.6836142104        5.6235458250       -1.9563944614  P2PROA    16              0.0000000000
       653        42  LEU       HN             -3.4212302730        5.9016369149       -1.0304378535  P2PROA    16              0.0000000000
       654        42  LEU       CA             -2.8385027546        4.6179647560       -2.5627920484  P2PROA    16              0.0000000000
       655        42  LEU       HA             -2.4980305887        5.0113740478       -3.5097892686  P2PROA    16              0.0000000000
       656        42  LEU       CB             -1.6132252094        4.3636993927       -1.6550801392  P2PROA    16              0.0000000000
       657        42  LEU       HB1            -1.9700752978        4.0416062774       -0.6527136993  P2PROA    16              0.0000000000
       658        42  LEU       HB2            -1.0841552693        5.3327658260       -1.5147085613  P2PROA    16              0.0000000000
       659        42  LEU       CG             -0.5991092068        3.3205032366       -2.1675597317  P2PROA    16              0.0000000000
       660        42  LEU       HG             -1.1165483207        2.3395778183       -2.2859415868  P2PROA    16              0.0000000000
       661        42  LEU       CD1            -0.0109363177        3.7132031146       -3.5355871732  P2PROA    16              0.0000000000
       662        42  LEU       HD11            0.4988023028        4.6967535843       -3.4653821761  P2PROA    16              0.0000000000
       663        42  LEU       HD12           -0.8029360866        3.7768743709       -4.3115139932  P2PROA    16              0.0000000000
       664        42  LEU       HD13            0.7268099506        2.9545621747       -3.8664346452  P2PROA    16              0.0000000000
       665        42  LEU       CD2             0.5141791172        3.1276588400       -1.1246331112  P2PROA    16              0.0000000000
       666        42  LEU       HD21            0.0809588094        2.8222905005       -0.1495698779  P2PROA    16              0.0000000000
       667        42  LEU       HD22            1.0722663090        4.0766306204       -0.9793657065  P2PROA    16              0.0000000000
       668        42  LEU       HD23            1.2259377160        2.3436831476       -1.4516756324  P2PROA    16              0.0000000000
       669        42  LEU       C              -3.5689811958        3.3166058711       -2.8703356290  P2PROA    16              0.0000000000
       670        42  LEU       O              -3.4044315943        2.7348117975       -3.9407200257  P2PROA    16              0.0000000000
       671        43  ILE       N              -4.4380881807        2.8361404989       -1.9545911799  P2PROA    17              0.0000000000
       672        43  ILE       HN             -4.4981057106        3.2752122317       -1.0550604095  P2PROA    17              0.0000000000
       673        43  ILE       CA             -5.2948188144        1.6759714921       -2.1788510376  P2PROA    17              0.0000000000
       674        43  ILE       HA             -4.6564746950        0.8510856978       -2.4556141821  P2PROA    17              0.0000000000
       675        43  ILE       CB             -6.0459319026        1.2329169750       -0.9162252642  P2PROA    17              0.0000000000
       676        43  ILE       HB             -6.5543251201        2.1153586531       -0.4631302468  P2PROA    17              0.0000000000
       677        43  ILE       CG2            -7.1081818455        0.1582377580       -1.2553734272  P2PROA    17              0.0000000000
       678        43  ILE       HG21           -6.6105657286       -0.6851511637       -1.7823930128  P2PROA    17              0.0000000000
       679        43  ILE       HG22           -7.9119197516        0.5750123295       -1.8930832444  P2PROA    17              0.0000000000
       680        43  ILE       HG23           -7.5733547060       -0.2292824853       -0.3257982103  P2PROA    17              0.0000000000
       681        43  ILE       CG1            -5.0313407011        0.6769360283        0.1127621448  P2PROA    17              0.0000000000
       682        43  ILE       HG11           -4.2383014725        1.4358426903        0.2782269595  P2PROA    17              0.0000000000
       683        43  ILE       HG12           -4.5352112328       -0.2204350286       -0.3181295627  P2PROA    17              0.0000000000
       684        43  ILE       CD             -5.6389498729        0.3143543615        1.4737548342  P2PROA    17              0.0000000000
       685        43  ILE       HD1            -6.3408278015       -0.5411422749        1.3969278286  P2PROA    17              0.0000000000
       686        43  ILE       HD2            -6.1794807196        1.1834211712        1.9075770630  P2PROA    17              0.0000000000
       687        43  ILE       HD3            -4.8387445646        0.0221698490        2.1859463225  P2PROA    17              0.0000000000
       688        43  ILE       C              -6.2363643716        1.8502134048       -3.3589160140  P2PROA    17              0.0000000000
       689        43  ILE       O              -6.3869921002        0.9417325688       -4.1806205494  P2PROA    17              0.0000000000
       690        44  SER       N              -6.8687920970        3.0358887133       -3.4944425761  P2PROA    18              0.0000000000
       691        44  SER       HN             -6.7512129631        3.7235595164       -2.7753754810  P2PROA    18              0.0000000000
       692        44  SER       CA             -7.6637589549        3.4035705881       -4.6590096246  P2PROA    18              0.0000000000
       693        44  SER       HA             -8.4404821952        2.6609042412       -4.7763721893  P2PROA    18              0.0000000000
       694        44  SER       CB             -8.3313088237        4.7987412553       -4.4825565452  P2PROA    18              0.0000000000
       695        44  SER       HB1            -7.5490334083        5.5550189146       -4.2490113074  P2PROA    18              0.0000000000
       696        44  SER       HB2            -9.0208905117        4.7611695279       -3.6085228547  P2PROA    18              0.0000000000
       697        44  SER       OG             -9.0387010921        5.2292046724       -5.6520683208  P2PROA    18              0.0000000000
       698        44  SER       HG1            -9.7600523421        4.6026579684       -5.7823388710  P2PROA    18              0.0000000000
       699        44  SER       C              -6.8578349485        3.3900127246       -5.9456762085  P2PROA    18              0.0000000000
       700        44  SER       O              -7.3126437924        2.8997484644       -6.9792965290  P2PROA    18              0.0000000000
       701        45  TRP       N              -5.6165863577        3.9158152854       -5.9040617230  P2PROA    19              0.0000000000
       702        45  TRP       HN             -5.2745517856        4.2851272054       -5.0372330703  P2PROA    19              0.0000000000
       703        45  TRP       CA             -4.6844675809        3.9052455714       -7.0211664429  P2PROA    19              0.0000000000
       704        45  TRP       HA             -5.1711147890        4.3765905929       -7.8599500085  P2PROA    19              0.0000000000
       705        45  TRP       CB             -3.4003067743        4.7209061940       -6.6627329584  P2PROA    19              0.0000000000
       706        45  TRP       HB1            -2.9107830028        4.2555321555       -5.7832967005  P2PROA    19              0.0000000000
       707        45  TRP       HB2            -3.7378465639        5.7283412644       -6.3345709999  P2PROA    19              0.0000000000
       708        45  TRP       CG             -2.3491133278        4.8812533715       -7.7272487872  P2PROA    19              0.0000000000
       709        45  TRP       CD1            -2.1770116636        5.9939898629       -8.5124861994  P2PROA    19              0.0000000000
       710        45  TRP       HD1            -2.7569025857        6.9000950190       -8.4090756180  P2PROA    19              0.0000000000
       711        45  TRP       NE1            -1.0966203960        5.8166897295       -9.3455880677  P2PROA    19              0.0000000000
       712        45  TRP       HE1            -0.7016674922        6.4665973173       -9.9577094850  P2PROA    19              0.0000000000
       713        45  TRP       CE2            -0.5409976216        4.5949966417       -9.1133653418  P2PROA    19              0.0000000000
       714        45  TRP       CD2            -1.2875136720        3.9718124320       -8.0861097437  P2PROA    19              0.0000000000
       715        45  TRP       CE3            -0.8830253958        2.7222018325       -7.6177258459  P2PROA    19              0.0000000000
       716        45  TRP       HE3            -1.4103425543        2.2366198556       -6.8152836643  P2PROA    19              0.0000000000
       717        45  TRP       CZ3             0.2079443317        2.0926683021       -8.2235254987  P2PROA    19              0.0000000000
       718        45  TRP       HZ3             0.5128835005        1.1105278487       -7.8836788897  P2PROA    19              0.0000000000
       719        45  TRP       CZ2             0.5601785548        3.9816501627       -9.6950702343  P2PROA    19              0.0000000000
       720        45  TRP       HZ2             1.1349859944        4.4760756233      -10.4581011536  P2PROA    19              0.0000000000
       721        45  TRP       CH2             0.9163219679        2.7076964125       -9.2477997544  P2PROA    19              0.0000000000
       722        45  TRP       HH2             1.7631777150        2.1884411576       -9.6767618038  P2PROA    19              0.0000000000
       723        45  TRP       C              -4.3384559888        2.5028210880       -7.4950975548  P2PROA    19              0.0000000000
       724        45  TRP       O              -4.3918187597        2.2217433705       -8.6918808453  P2PROA    19              0.0000000000
       725        46  ILE       N              -4.0431496612        1.5745959474       -6.5607326146  P2PROA    20              0.0000000000
       726        46  ILE       HN             -4.0160811584        1.8502108408       -5.5967803671  P2PROA    20              0.0000000000
       727        46  ILE       CA             -3.7056190845        0.1763135888       -6.8275345151  P2PROA    20              0.0000000000
       728        46  ILE       HA             -2.8510269054        0.1520523102       -7.4891134122  P2PROA    20              0.0000000000
       729        46  ILE       CB             -3.3525655199       -0.5412530688       -5.5121208177  P2PROA    20              0.0000000000
       730        46  ILE       HB             -4.1571250538       -0.3016134962       -4.7743405622  P2PROA    20              0.0000000000
       731        46  ILE       CG2            -3.2971863091       -2.0795099161       -5.6615216407  P2PROA    20              0.0000000000
       732        46  ILE       HG21           -2.6014761389       -2.3715802636       -6.4732821632  P2PROA    20              0.0000000000
       733        46  ILE       HG22           -4.3045537466       -2.4957348404       -5.8556460000  P2PROA    20              0.0000000000
       734        46  ILE       HG23           -2.9312632832       -2.5449137246       -4.7214890542  P2PROA    20              0.0000000000
       735        46  ILE       CG1            -2.0257001593       -0.0297359612       -4.9011978323  P2PROA    20              0.0000000000
       736        46  ILE       HG11           -1.8999489768        1.0562257934       -5.0914960743  P2PROA    20              0.0000000000
       737        46  ILE       HG12           -1.1715101205       -0.5517767299       -5.3861031225  P2PROA    20              0.0000000000
       738        46  ILE       CD             -1.9715785061       -0.2365417693       -3.3825075263  P2PROA    20              0.0000000000
       739        46  ILE       HD1            -2.2492181581       -1.2737397247       -3.1077615973  P2PROA    20              0.0000000000
       740        46  ILE       HD2            -2.6618614498        0.4583721844       -2.8636406842  P2PROA    20              0.0000000000
       741        46  ILE       HD3            -0.9549224607       -0.0345272272       -2.9969984494  P2PROA    20              0.0000000000
       742        46  ILE       C              -4.8304036439       -0.5539437042       -7.5481631749  P2PROA    20              0.0000000000
       743        46  ILE       O              -4.6320452823       -1.3120340405       -8.5021340333  P2PROA    20              0.0000000000
       744        47  LYS       N              -6.0732301255       -0.3168959139       -7.0978664554  P2PROA    21              0.0000000000
       745        47  LYS       HN             -6.2006656947        0.2571586988       -6.2892347428  P2PROA    21              0.0000000000
       746        47  LYS       CA             -7.2727851838       -0.8265848218       -7.7261083381  P2PROA    21              0.0000000000
       747        47  LYS       HA             -7.1477005195       -1.8961740911       -7.8244311812  P2PROA    21              0.0000000000
       748        47  LYS       CB             -8.4992605153       -0.6189212387       -6.8144743114  P2PROA    21              0.0000000000
       749        47  LYS       HB1            -9.4392068412       -0.8794932854       -7.3556075690  P2PROA    21              0.0000000000
       750        47  LYS       HB2            -8.5537601137        0.4523023690       -6.5217308390  P2PROA    21              0.0000000000
       751        47  LYS       CG             -8.3861078716       -1.5146892803       -5.5733101269  P2PROA    21              0.0000000000
       752        47  LYS       HG1            -7.3489113079       -1.4415377280       -5.1687466267  P2PROA    21              0.0000000000
       753        47  LYS       HG2            -8.5438049461       -2.5719740462       -5.8884144910  P2PROA    21              0.0000000000
       754        47  LYS       CD             -9.3568543032       -1.1445991477       -4.4469902576  P2PROA    21              0.0000000000
       755        47  LYS       HD1           -10.3970590810       -1.2377700001       -4.8323230290  P2PROA    21              0.0000000000
       756        47  LYS       HD2            -9.1740232913       -0.0789205179       -4.1760567880  P2PROA    21              0.0000000000
       757        47  LYS       CE             -9.1241135869       -2.0591964603       -3.2390978418  P2PROA    21              0.0000000000
       758        47  LYS       HE1            -8.0423809295       -2.0603855721       -2.9739895867  P2PROA    21              0.0000000000
       759        47  LYS       HE2            -9.4252043573       -3.1032610807       -3.4769112486  P2PROA    21              0.0000000000
       760        47  LYS       NZ             -9.8744131491       -1.6134802380       -2.0483782808  P2PROA    21              0.0000000000
       761        47  LYS       HZ1           -10.8895083263       -1.5264440365       -2.2720769955  P2PROA    21              0.0000000000
       762        47  LYS       HZ2            -9.5004816345       -0.6957111899       -1.7336492988  P2PROA    21              0.0000000000
       763        47  LYS       HZ3            -9.7398855389       -2.3025882318       -1.2808921012  P2PROA    21              0.0000000000
       764        47  LYS       C              -7.5075068710       -0.3557346941       -9.1477482622  P2PROA    21              0.0000000000
       765        47  LYS       O              -7.8248577696       -1.1682355199      -10.0172262841  P2PROA    21              0.0000000000
       766        48  ARG       N              -7.2935355383        0.9444429327       -9.4475534798  P2PROA    22              0.0000000000
       767        48  ARG       HN             -7.0513404818        1.5894476201       -8.7226224123  P2PROA    22              0.0000000000
       768        48  ARG       CA             -7.3503369525        1.4533297408      -10.8071067976  P2PROA    22              0.0000000000
       769        48  ARG       HA             -8.3170403345        1.1909868338      -11.2168614407  P2PROA    22              0.0000000000
       770        48  ARG       CB             -7.1908922318        2.9892237284      -10.8506395899  P2PROA    22              0.0000000000
       771        48  ARG       HB1            -7.1628876536        3.3345587825      -11.9106166229  P2PROA    22              0.0000000000
       772        48  ARG       HB2            -6.2186911140        3.2522333806      -10.3745976218  P2PROA    22              0.0000000000
       773        48  ARG       CG             -8.3336439496        3.7465166980      -10.1498740640  P2PROA    22              0.0000000000
       774        48  ARG       HG1            -8.3052078027        3.5398521052       -9.0610211831  P2PROA    22              0.0000000000
       775        48  ARG       HG2            -9.3106779082        3.3671120492      -10.5253929646  P2PROA    22              0.0000000000
       776        48  ARG       CD             -8.2884309913        5.2574233003      -10.3780833733  P2PROA    22              0.0000000000
       777        48  ARG       HD1            -9.0664554818        5.7878072171       -9.7942568975  P2PROA    22              0.0000000000
       778        48  ARG       HD2            -8.4379319315        5.4912173046      -11.4574117227  P2PROA    22              0.0000000000
       779        48  ARG       NE             -6.9380179184        5.7475017936       -9.9736163896  P2PROA    22              0.0000000000
       780        48  ARG       HE             -6.2031409235        5.6936485942      -10.6415530243  P2PROA    22              0.0000000000
       781        48  ARG       CZ             -6.7039139578        6.3840260341       -8.8328294617  P2PROA    22              0.0000000000
       782        48  ARG       NH1            -7.5382941669        6.3794155307       -7.8205753198  P2PROA    22              0.0000000000
       783        48  ARG       HH11           -8.1745493724        5.6151304438       -7.7487556080  P2PROA    22              0.0000000000
       784        48  ARG       HH12           -7.2978637898        6.8255303038       -6.9719900244  P2PROA    22              0.0000000000
       785        48  ARG       NH2            -5.5940818296        7.0693784428       -8.7029073287  P2PROA    22              0.0000000000
       786        48  ARG       HH21           -5.0140112533        7.1422699449       -9.5012805027  P2PROA    22              0.0000000000
       787        48  ARG       HH22           -5.5728860439        7.7691545757       -8.0018140894  P2PROA    22              0.0000000000
       788        48  ARG       C              -6.3227649744        0.8372616757      -11.7381173106  P2PROA    22              0.0000000000
       789        48  ARG       O              -6.6417250359        0.4572278578      -12.8634414540  P2PROA    22              0.0000000000
       790        49  LYS       N              -5.0729151273        0.7055299325      -11.2570390840  P2PROA    23              0.0000000000
       791        49  LYS       HN             -4.8818255574        1.0432073463      -10.3320919772  P2PROA    23              0.0000000000
       792        49  LYS       CA             -3.9652567696        0.0621466964      -11.9362998493  P2PROA    23              0.0000000000
       793        49  LYS       HA             -3.9064345311        0.4996161697      -12.9241562363  P2PROA    23              0.0000000000
       794        49  LYS       CB             -2.6448645941        0.3903005653      -11.1963785942  P2PROA    23              0.0000000000
       795        49  LYS       HB1            -1.8831547962       -0.4088138559      -11.3037241224  P2PROA    23              0.0000000000
       796        49  LYS       HB2            -2.8742292059        0.4583855225      -10.1067684262  P2PROA    23              0.0000000000
       797        49  LYS       CG             -2.0272018415        1.7299574882      -11.6424102504  P2PROA    23              0.0000000000
       798        49  LYS       HG1            -1.5303065424        2.1948288992      -10.7599148471  P2PROA    23              0.0000000000
       799        49  LYS       HG2            -2.8384971699        2.4200103684      -11.9656204791  P2PROA    23              0.0000000000
       800        49  LYS       CD             -0.9763484743        1.5526091334      -12.7582129983  P2PROA    23              0.0000000000
       801        49  LYS       HD1            -1.4490802306        1.0208790361      -13.6142319501  P2PROA    23              0.0000000000
       802        49  LYS       HD2            -0.1741505967        0.9199855548      -12.3257154833  P2PROA    23              0.0000000000
       803        49  LYS       CE             -0.3369551472        2.8641827689      -13.2412162552  P2PROA    23              0.0000000000
       804        49  LYS       HE1             0.0550489958        3.4377972318      -12.3752776706  P2PROA    23              0.0000000000
       805        49  LYS       HE2            -1.0885113793        3.4852563785      -13.7741437490  P2PROA    23              0.0000000000
       806        49  LYS       NZ              0.8000527550        2.6085322114      -14.1702528882  P2PROA    23              0.0000000000
       807        49  LYS       HZ1             0.4769489689        1.9520851617      -14.9088602000  P2PROA    23              0.0000000000
       808        49  LYS       HZ2             1.6305510489        2.2093998320      -13.6746197680  P2PROA    23              0.0000000000
       809        49  LYS       HZ3             1.1051048130        3.4876723527      -14.6367891302  P2PROA    23              0.0000000000
       810        49  LYS       C              -4.1100200161       -1.4291334137      -12.1974118522  P2PROA    23              0.0000000000
       811        49  LYS       O              -3.6167215845       -1.9481826489      -13.2047691349  P2PROA    23              0.0000000000
       812        50  ARG       N              -4.7438438070       -2.1740252398      -11.2691548980  P2PROA    24              0.0000000000
       813        50  ARG       HN             -4.9657078737       -1.7582731237      -10.3818286698  P2PROA    24              0.0000000000
       814        50  ARG       CA             -5.1653064876       -3.5477740789      -11.4612853112  P2PROA    24              0.0000000000
       815        50  ARG       HA             -4.3019540532       -4.0896523670      -11.8217350456  P2PROA    24              0.0000000000
       816        50  ARG       CB             -5.5751989974       -4.2223128157      -10.1311927188  P2PROA    24              0.0000000000
       817        50  ARG       HB1            -6.0815403882       -5.1963432240      -10.3232061113  P2PROA    24              0.0000000000
       818        50  ARG       HB2            -6.2882508832       -3.5619813961       -9.5917553030  P2PROA    24              0.0000000000
       819        50  ARG       CG             -4.3259837640       -4.5062899707       -9.2784215772  P2PROA    24              0.0000000000
       820        50  ARG       HG1            -3.6291426242       -3.6486503643       -9.4155539389  P2PROA    24              0.0000000000
       821        50  ARG       HG2            -3.8091074360       -5.4000546594       -9.6854493452  P2PROA    24              0.0000000000
       822        50  ARG       CD             -4.5677103332       -4.5902578521       -7.7706842037  P2PROA    24              0.0000000000
       823        50  ARG       HD1            -5.1536102260       -3.6965979214       -7.4513652859  P2PROA    24              0.0000000000
       824        50  ARG       HD2            -3.5988012672       -4.5805526404       -7.2139041409  P2PROA    24              0.0000000000
       825        50  ARG       NE             -5.3407183506       -5.8217929645       -7.4288831881  P2PROA    24              0.0000000000
       826        50  ARG       HE             -6.2146166005       -5.7164328700       -6.9720194589  P2PROA    24              0.0000000000
       827        50  ARG       CZ             -4.7973177622       -7.0269498304       -7.3899897292  P2PROA    24              0.0000000000
       828        50  ARG       NH1            -3.5867531040       -7.2385832395       -7.8455145030  P2PROA    24              0.0000000000
       829        50  ARG       HH11           -3.1156448270       -8.0860071749       -7.6177122920  P2PROA    24              0.0000000000
       830        50  ARG       HH12           -3.0834114170       -6.4445526907       -8.1625807623  P2PROA    24              0.0000000000
       831        50  ARG       NH2            -5.4194549335       -8.0305832798       -6.8136588263  P2PROA    24              0.0000000000
       832        50  ARG       HH21           -6.3786591075       -7.9125081846       -6.5729963197  P2PROA    24              0.0000000000
       833        50  ARG       HH22           -5.0181426774       -8.9328444864       -6.8887260453  P2PROA    24              0.0000000000
       834        50  ARG       C              -6.1978944823       -3.7519281527      -12.5400739299  P2PROA    24              0.0000000000
       835        50  ARG       O              -6.0617282403       -4.6578421190      -13.3507888136  P2PROA    24              0.0000000000
       836        51  GLN       N              -7.2228954287       -2.8892481110      -12.6244455082  P2PROA    25              0.0000000000
       837        51  GLN       HN             -7.3278168378       -2.1518469585      -11.9559110455  P2PROA    25              0.0000000000
       838        51  GLN       CA             -8.2731041295       -3.0377705144      -13.6173592093  P2PROA    25              0.0000000000
       839        51  GLN       HA             -8.5157983349       -4.0896400650      -13.6938492837  P2PROA    25              0.0000000000
       840        51  GLN       CB             -9.5377367734       -2.2964681981      -13.1317197490  P2PROA    25              0.0000000000
       841        51  GLN       HB1           -10.3237088825       -2.3285016580      -13.9202037375  P2PROA    25              0.0000000000
       842        51  GLN       HB2            -9.2524539815       -1.2353926094      -12.9439610030  P2PROA    25              0.0000000000
       843        51  GLN       CG            -10.0914949063       -2.9423602570      -11.8349258903  P2PROA    25              0.0000000000
       844        51  GLN       HG1            -9.2790900852       -3.0857853785      -11.0895444520  P2PROA    25              0.0000000000
       845        51  GLN       HG2           -10.5169065966       -3.9421283131      -12.0594498665  P2PROA    25              0.0000000000
       846        51  GLN       CD            -11.1541021223       -2.1181867024      -11.1083602855  P2PROA    25              0.0000000000
       847        51  GLN       OE1           -11.4883745046       -2.4175723430       -9.9601538844  P2PROA    25              0.0000000000
       848        51  GLN       NE2           -11.6890006374       -1.0650969983      -11.7601614165  P2PROA    25              0.0000000000
       849        51  GLN       HE21          -12.2822780807       -0.4814594803      -11.2155666737  P2PROA    25              0.0000000000
       850        51  GLN       HE22          -11.3603659006       -0.8258181002      -12.6667253911  P2PROA    25              0.0000000000
       851        51  GLN       C              -7.8710971979       -2.6179306622      -15.0266076902  P2PROA    25              0.0000000000
       852        51  GLN       O              -8.4721598596       -3.0451761424      -16.0123782925  P2PROA    25              0.0000000000
       853        52  GLN       N              -6.7956677373       -1.8087365421      -15.1531227347  P2PROA    26              0.0000000000
       854        52  GLN       HN             -6.3897145707       -1.3822668250      -14.3485243594  P2PROA    26              0.0000000000
       855        52  GLN       CA             -6.1347356307       -1.5604123031      -16.4292759217  P2PROA    26              0.0000000000
       856        52  GLN       HA             -6.8937037297       -1.2758633425      -17.1458757787  P2PROA    26              0.0000000000
       857        52  GLN       CB             -5.0717376668       -0.4243238406      -16.3703796408  P2PROA    26              0.0000000000
       858        52  GLN       HB1            -4.4846129971       -0.4118995997      -17.3182667841  P2PROA    26              0.0000000000
       859        52  GLN       HB2            -4.3696677216       -0.6644858050      -15.5418460129  P2PROA    26              0.0000000000
       860        52  GLN       CG             -5.6559616356        0.9881365426      -16.1637783128  P2PROA    26              0.0000000000
       861        52  GLN       HG1            -6.3414606008        0.9613517371      -15.2911977100  P2PROA    26              0.0000000000
       862        52  GLN       HG2            -6.2333884629        1.2870269234      -17.0630103805  P2PROA    26              0.0000000000
       863        52  GLN       CD             -4.5547416814        2.0284219964      -15.9170042937  P2PROA    26              0.0000000000
       864        52  GLN       OE1            -3.3933339592        1.9253625973      -16.3229823692  P2PROA    26              0.0000000000
       865        52  GLN       NE2            -4.9416594847        3.0877960607      -15.1571414218  P2PROA    26              0.0000000000
       866        52  GLN       HE21           -5.8351685311        3.0620800706      -14.7212495521  P2PROA    26              0.0000000000
       867        52  GLN       HE22           -4.3049058835        3.8506040261      -15.0798956506  P2PROA    26              0.0000000000
       868        52  GLN       C              -5.4205922569       -2.7990780185      -17.0380493403  P2PROA    26              0.0000000000
       869        52  GLN       O              -5.3603970478       -2.9267068140      -18.2650683469  P2PROA    26              0.0000000000
       870        52  GLN       NT             -4.8150249220       -3.6831062330      -16.2090311448  P2PROA    26              0.0000000000
       871        52  GLN       HT1            -5.1473195476       -3.7792471462      -15.2703630950  P2PROA    26              0.0000000000
       872        52  GLN       HT2            -4.3155797483       -4.4071435993      -16.6750901400  P2PROA    26              0.0000000000
       873        53  POPC      N             -13.5571913298       -9.1350430679       20.9402116559  MEMB      1               0.0000000000
       874        53  POPC      C12           -15.0281514901       -9.2464894805       20.5329578852  MEMB      1               0.0000000000
       875        53  POPC      H12A          -15.6119958716       -8.6502719788       21.2297478492  MEMB      1               0.0000000000
       876        53  POPC      H12B          -15.3660455655      -10.2664551880       20.6582924661  MEMB      1               0.0000000000
       877        53  POPC      C13           -13.2740964042       -9.9336156286       22.1596595179  MEMB      1               0.0000000000
       878        53  POPC      H13A          -13.3154000630      -10.9988960196       21.9598171375  MEMB      1               0.0000000000
       879        53  POPC      H13B          -12.2962649561       -9.6975330840       22.5754281277  MEMB      1               0.0000000000
       880        53  POPC      H13C          -13.9900809317       -9.6952252201       22.9372470848  MEMB      1               0.0000000000
       881        53  POPC      C14           -12.6568103636       -9.5544336525       19.8259295306  MEMB      1               0.0000000000
       882        53  POPC      H14A          -12.6632340280       -8.7607110566       19.0776240966  MEMB      1               0.0000000000
       883        53  POPC      H14B          -11.6469173450       -9.6833919497       20.1898863758  MEMB      1               0.0000000000
       884        53  POPC      H14C          -13.0270248898      -10.4519140040       19.3460470471  MEMB      1               0.0000000000
       885        53  POPC      C15           -13.2803760821       -7.6915275118       21.2397257218  MEMB      1               0.0000000000
       886        53  POPC      H15A          -13.8716954491       -7.3436666193       22.0744405440  MEMB      1               0.0000000000
       887        53  POPC      H15B          -13.5562014895       -7.1066425816       20.3580269101  MEMB      1               0.0000000000
       888        53  POPC      H15C          -12.2425394024       -7.5067758562       21.4942519440  MEMB      1               0.0000000000
       889        53  POPC      C11           -15.4431390423       -8.7952044141       19.1046367187  MEMB      1               0.0000000000
       890        53  POPC      H11A          -16.5572621676       -8.7004534106       19.0768042378  MEMB      1               0.0000000000
       891        53  POPC      H11B          -15.1694110893       -9.6006529907       18.3873222988  MEMB      1               0.0000000000
       892        53  POPC      P             -15.2375329024       -6.6931710302       17.5030575089  MEMB      1               0.0000000000
       893        53  POPC      O13           -14.7522371010       -5.3289986483       17.8175875845  MEMB      1               0.0000000000
       894        53  POPC      O14           -16.6759097659       -6.8959403277       17.2690546402  MEMB      1               0.0000000000
       895        53  POPC      O12           -14.8043518524       -7.5756922717       18.7465267687  MEMB      1               0.0000000000
       896        53  POPC      O11           -14.4009489432       -7.3338834468       16.3049596101  MEMB      1               0.0000000000
       897        53  POPC      C1            -13.2726512414       -8.1264968901       16.6603958619  MEMB      1               0.0000000000
       898        53  POPC      HA            -13.6172817748       -9.0625598152       17.1466521875  MEMB      1               0.0000000000
       899        53  POPC      HB            -12.6071374848       -7.5645269613       17.3625253595  MEMB      1               0.0000000000
       900        53  POPC      C2            -12.4082652561       -8.5696177893       15.4562378441  MEMB      1               0.0000000000
       901        53  POPC      HS            -11.4542105190       -8.0001417442       15.5352269879  MEMB      1               0.0000000000
       902        53  POPC      O21           -13.0779562010       -8.3729335920       14.1857657114  MEMB      1               0.0000000000
       903        53  POPC      C21           -12.7282415728       -7.2421398825       13.5855226443  MEMB      1               0.0000000000
       904        53  POPC      O22           -11.7624374536       -6.5547828252       13.8990433933  MEMB      1               0.0000000000
       905        53  POPC      C22           -13.4414721886       -7.1023937715       12.2435719563  MEMB      1               0.0000000000
       906        53  POPC      H2R           -14.3669430031       -6.5285611379       12.4349843043  MEMB      1               0.0000000000
       907        53  POPC      H2S           -13.7218263978       -8.1048462955       11.8625173719  MEMB      1               0.0000000000
       908        53  POPC      C3            -11.9732359689      -10.0549662438       15.5651929751  MEMB      1               0.0000000000
       909        53  POPC      HX            -12.8734458355      -10.7054412922       15.4485200956  MEMB      1               0.0000000000
       910        53  POPC      HY            -11.5349683479      -10.2398610890       16.5719089731  MEMB      1               0.0000000000
       911        53  POPC      O31           -10.9544704757      -10.2630456400       14.5694541207  MEMB      1               0.0000000000
       912        53  POPC      C31           -11.1725975310      -11.2455119715       13.6968560958  MEMB      1               0.0000000000
       913        53  POPC      O32           -11.8786799481      -12.2146890044       13.8610185574  MEMB      1               0.0000000000
       914        53  POPC      C32           -10.4228638655      -10.7868791468       12.4506757674  MEMB      1               0.0000000000
       915        53  POPC      H2X            -9.3641683518      -10.6008730185       12.7255813726  MEMB      1               0.0000000000
       916        53  POPC      H2Y           -10.9231087487       -9.8439224302       12.1397165761  MEMB      1               0.0000000000
       917        53  POPC      C23           -12.4912934142       -6.3722376196       11.2510881308  MEMB      1               0.0000000000
       918        53  POPC      H3R           -11.4493091506       -6.7274693231       11.4059351110  MEMB      1               0.0000000000
       919        53  POPC      H3S           -12.5030363245       -5.2811498689       11.4798069262  MEMB      1               0.0000000000
       920        53  POPC      C24           -12.7587668399       -6.5800728750        9.7503416618  MEMB      1               0.0000000000
       921        53  POPC      H4R           -13.7776886256       -6.2259448118        9.4865856434  MEMB      1               0.0000000000
       922        53  POPC      H4S           -12.7120071924       -7.6664144316        9.5108789526  MEMB      1               0.0000000000
       923        53  POPC      C25           -11.7172030116       -5.8463033345        8.8759258490  MEMB      1               0.0000000000
       924        53  POPC      H5R           -10.7169647755       -6.2982158467        9.0666935885  MEMB      1               0.0000000000
       925        53  POPC      H5S           -11.6624014653       -4.7718496519        9.1648043656  MEMB      1               0.0000000000
       926        53  POPC      C26           -12.0141131220       -5.9336750910        7.3681682594  MEMB      1               0.0000000000
       927        53  POPC      H6R           -12.6987398840       -5.1106298761        7.0681548960  MEMB      1               0.0000000000
       928        53  POPC      H6S           -12.5491074994       -6.8869978568        7.1706653726  MEMB      1               0.0000000000
       929        53  POPC      C27           -10.7563458962       -5.9266675096        6.4803843746  MEMB      1               0.0000000000
       930        53  POPC      H7R           -10.0884157496       -6.7502508974        6.8225703000  MEMB      1               0.0000000000
       931        53  POPC      H7S           -10.2020428464       -4.9705388048        6.6036407518  MEMB      1               0.0000000000
       932        53  POPC      C28           -11.1020762392       -6.1574140990        4.9937938145  MEMB      1               0.0000000000
       933        53  POPC      H8R           -11.6573397972       -5.2710868309        4.6140382012  MEMB      1               0.0000000000
       934        53  POPC      H8S           -11.8126649491       -7.0121005104        4.9381511522  MEMB      1               0.0000000000
       935        53  POPC      C29            -9.8989753813       -6.4246491684        4.1231700668  MEMB      1               0.0000000000
       936        53  POPC      H91            -9.4443764524       -5.5276058290        3.6794239773  MEMB      1               0.0000000000
       937        53  POPC      C210           -9.3412978529       -7.6260083960        3.8738794083  MEMB      1               0.0000000000
       938        53  POPC      H101           -8.4760919853       -7.6782294656        3.1943477785  MEMB      1               0.0000000000
       939        53  POPC      C211           -9.8015685799       -8.9581704630        4.4170047124  MEMB      1               0.0000000000
       940        53  POPC      H11R          -10.5929782457       -8.8309810986        5.1909591465  MEMB      1               0.0000000000
       941        53  POPC      H11S           -8.9522228781       -9.4730803926        4.9176154239  MEMB      1               0.0000000000
       942        53  POPC      C212          -10.3681281311       -9.8939579177        3.3325048197  MEMB      1               0.0000000000
       943        53  POPC      H12R           -9.6391130147      -10.0263031813        2.5022626215  MEMB      1               0.0000000000
       944        53  POPC      H12S          -11.2770782685       -9.4085897320        2.9135660739  MEMB      1               0.0000000000
       945        53  POPC      C213          -10.7335046499      -11.2749561026        3.9028474004  MEMB      1               0.0000000000
       946        53  POPC      H13R          -11.3179366016      -11.1227993956        4.8377630682  MEMB      1               0.0000000000
       947        53  POPC      H13S           -9.7930508232      -11.8016557105        4.1774514974  MEMB      1               0.0000000000
       948        53  POPC      C214          -11.5637485894      -12.1566545350        2.9521452529  MEMB      1               0.0000000000
       949        53  POPC      H14R          -11.6761987034      -13.1632766467        3.4169462053  MEMB      1               0.0000000000
       950        53  POPC      H14S          -11.0221717561      -12.2920399331        1.9907236175  MEMB      1               0.0000000000
       951        53  POPC      C215          -12.9631867628      -11.5742494133        2.6989488966  MEMB      1               0.0000000000
       952        53  POPC      H15R          -12.8745517811      -10.5847862785        2.2016281885  MEMB      1               0.0000000000
       953        53  POPC      H15S          -13.4497967574      -11.4053811363        3.6871886167  MEMB      1               0.0000000000
       954        53  POPC      C216          -13.8854241616      -12.4533261274        1.8407004240  MEMB      1               0.0000000000
       955        53  POPC      H16R          -13.8942789032      -13.4888371529        2.2404378314  MEMB      1               0.0000000000
       956        53  POPC      H16S          -13.5001828530      -12.4935026553        0.7975387051  MEMB      1               0.0000000000
       957        53  POPC      C217          -15.3206995493      -11.9070615063        1.8504111446  MEMB      1               0.0000000000
       958        53  POPC      H17R          -15.3070932990      -10.8744403099        1.4331427531  MEMB      1               0.0000000000
       959        53  POPC      H17S          -15.6524186654      -11.8302063394        2.9119596938  MEMB      1               0.0000000000
       960        53  POPC      C218          -16.3382722410      -12.7454178236        1.0747732795  MEMB      1               0.0000000000
       961        53  POPC      H18R          -17.3618827261      -12.3369247928        1.2259167375  MEMB      1               0.0000000000
       962        53  POPC      H18S          -16.3259425124      -13.8008252826        1.4218576163  MEMB      1               0.0000000000
       963        53  POPC      H18T          -16.1170844865      -12.7282979970       -0.0138485005  MEMB      1               0.0000000000
       964        53  POPC      C33           -10.4432064132      -11.7108448030       11.2398235991  MEMB      1               0.0000000000
       965        53  POPC      H3X           -11.0686163681      -12.6141493560       11.4276115650  MEMB      1               0.0000000000
       966        53  POPC      H3Y            -9.4024803238      -12.0254156587       11.0124151470  MEMB      1               0.0000000000
       967        53  POPC      C34           -10.9756003663      -10.9887532295       10.0142881948  MEMB      1               0.0000000000
       968        53  POPC      H4X           -10.2396401178      -10.2386526845        9.6455291746  MEMB      1               0.0000000000
       969        53  POPC      H4Y           -11.8881760072      -10.4331466022       10.3204058058  MEMB      1               0.0000000000
       970        53  POPC      C35           -11.3124523107      -11.9763905777        8.9051504087  MEMB      1               0.0000000000
       971        53  POPC      H5X           -11.9704168570      -12.7837528677        9.3031948029  MEMB      1               0.0000000000
       972        53  POPC      H5Y           -10.3749545343      -12.4503766867        8.5331644819  MEMB      1               0.0000000000
       973        53  POPC      C36           -12.0211225817      -11.2708114883        7.7626013284  MEMB      1               0.0000000000
       974        53  POPC      H6X           -12.1088334572      -11.9553947850        6.8893327324  MEMB      1               0.0000000000
       975        53  POPC      H6Y           -11.4038537954      -10.3977257233        7.4429047366  MEMB      1               0.0000000000
       976        53  POPC      C37           -13.4231891988      -10.7755571274        8.1332369222  MEMB      1               0.0000000000
       977        53  POPC      H7X           -13.4686137997      -10.2781233597        9.1240315802  MEMB      1               0.0000000000
       978        53  POPC      H7Y           -14.1155517987      -11.6425555697        8.1725927646  MEMB      1               0.0000000000
       979        53  POPC      C38           -13.8589938065       -9.7654933783        7.0866674755  MEMB      1               0.0000000000
       980        53  POPC      H8X           -13.6269392568      -10.2130468494        6.0916586352  MEMB      1               0.0000000000
       981        53  POPC      H8Y           -13.2418778704       -8.8461313772        7.1788322532  MEMB      1               0.0000000000
       982        53  POPC      C39           -15.3395660939       -9.4042693242        7.1169165543  MEMB      1               0.0000000000
       983        53  POPC      H9X           -15.5115321533       -8.5452710533        7.8046891905  MEMB      1               0.0000000000
       984        53  POPC      H9Y           -15.9389524731      -10.2586386653        7.4954446511  MEMB      1               0.0000000000
       985        53  POPC      C310          -15.7936310135       -9.0657335148        5.6958948704  MEMB      1               0.0000000000
       986        53  POPC      H10X          -16.8843616716       -8.8668200754        5.6981600525  MEMB      1               0.0000000000
       987        53  POPC      H10Y          -15.6119663730       -9.9461799814        5.0393851625  MEMB      1               0.0000000000
       988        53  POPC      C311          -15.0163122790       -7.8712137027        5.1299472105  MEMB      1               0.0000000000
       989        53  POPC      H11X          -13.9443355364       -8.1332555315        4.9933675474  MEMB      1               0.0000000000
       990        53  POPC      H11Y          -15.0485779472       -7.0660513200        5.8937553816  MEMB      1               0.0000000000
       991        53  POPC      C312          -15.5853127468       -7.3375202941        3.8094293968  MEMB      1               0.0000000000
       992        53  POPC      H12X          -15.3195637154       -6.2663899078        3.7087909328  MEMB      1               0.0000000000
       993        53  POPC      H12Y          -16.6948349792       -7.4032903331        3.8415361052  MEMB      1               0.0000000000
       994        53  POPC      C313          -15.0461165339       -8.0523579636        2.5658978973  MEMB      1               0.0000000000
       995        53  POPC      H13X          -15.7299837380       -7.8579185465        1.7093882341  MEMB      1               0.0000000000
       996        53  POPC      H13Y          -15.0489726285       -9.1455480746        2.7650388390  MEMB      1               0.0000000000
       997        53  POPC      C314          -13.6270132468       -7.6071955037        2.1637989884  MEMB      1               0.0000000000
       998        53  POPC      H14X          -13.1930835018       -8.3902654062        1.5028106091  MEMB      1               0.0000000000
       999        53  POPC      H14Y          -12.9791210293       -7.5380996214        3.0636783386  MEMB      1               0.0000000000
      1000        53  POPC      C315          -13.5931795774       -6.2729711723        1.4026702088  MEMB      1               0.0000000000
      1001        53  POPC      H15X          -13.9209920076       -5.4556510964        2.0836096410  MEMB      1               0.0000000000
      1002        53  POPC      H15Y          -14.3220831462       -6.3339781729        0.5622470510  MEMB      1               0.0000000000
      1003        53  POPC      C316          -12.2214746750       -5.9206900375        0.8216303234  MEMB      1               0.0000000000
      1004        53  POPC      H16X          -11.4419186272       -5.9335976480        1.6125073177  MEMB      1               0.0000000000
      1005        53  POPC      H16Y          -12.2457251968       -4.9154799339        0.3517373298  MEMB      1               0.0000000000
      1006        53  POPC      H16Z          -11.9379896968       -6.6547997147        0.0398537175  MEMB      1               0.0000000000
      1007        54  POPC      N               9.0203646207       15.8367402478       19.5289307456  MEMB      2               0.0000000000
      1008        54  POPC      C12             8.0887999139       14.8514993616       18.8211867360  MEMB      2               0.0000000000
      1009        54  POPC      H12A            7.7992388249       14.0772420767       19.5265430835  MEMB      2               0.0000000000
      1010        54  POPC      H12B            8.6205339300       14.3432337704       18.0255854445  MEMB      2               0.0000000000
      1011        54  POPC      C13             8.3248172658       16.4164149967       20.7253307807  MEMB      2               0.0000000000
      1012        54  POPC      H13A            8.9398774400       17.1199849832       21.2662692175  MEMB      2               0.0000000000
      1013        54  POPC      H13B            7.4157836421       16.9323949273       20.3922133073  MEMB      2               0.0000000000
      1014        54  POPC      H13C            7.9881517934       15.6400219900       21.3982981840  MEMB      2               0.0000000000
      1015        54  POPC      C14            10.2863646663       15.1888339757       19.9915107083  MEMB      2               0.0000000000
      1016        54  POPC      H14A           10.0658477720       14.3111355664       20.5902406645  MEMB      2               0.0000000000
      1017        54  POPC      H14B           10.9167007444       14.8887994589       19.1616081531  MEMB      2               0.0000000000
      1018        54  POPC      H14C           10.8448592152       15.8686904331       20.6325922594  MEMB      2               0.0000000000
      1019        54  POPC      C15             9.2863475991       16.9954736175       18.6169983072  MEMB      2               0.0000000000
      1020        54  POPC      H15A            9.6876757888       16.6918352617       17.6623117255  MEMB      2               0.0000000000
      1021        54  POPC      H15B            9.9416559648       17.7149155907       19.0803209807  MEMB      2               0.0000000000
      1022        54  POPC      H15C            8.3334670395       17.5074512012       18.4317741390  MEMB      2               0.0000000000
      1023        54  POPC      C11             6.7686547539       15.4259322297       18.2185610285  MEMB      2               0.0000000000
      1024        54  POPC      H11A            6.2102495367       14.5919004298       17.7284334199  MEMB      2               0.0000000000
      1025        54  POPC      H11B            7.0439243121       16.1407912953       17.4043868626  MEMB      2               0.0000000000
      1026        54  POPC      P               4.9303687349       17.2199581750       18.8009166686  MEMB      2               0.0000000000
      1027        54  POPC      O13             5.7286998156       18.4575871386       18.6876635600  MEMB      2               0.0000000000
      1028        54  POPC      O14             3.7522498044       17.2112630607       19.7019610954  MEMB      2               0.0000000000
      1029        54  POPC      O12             5.9364773014       16.0253019219       19.2250186145  MEMB      2               0.0000000000
      1030        54  POPC      O11             4.4476250682       16.7770782217       17.3333359983  MEMB      2               0.0000000000
      1031        54  POPC      C1              3.4076824891       15.7754590233       17.2636687413  MEMB      2               0.0000000000
      1032        54  POPC      HA              2.5375004748       16.0509843238       17.9035729743  MEMB      2               0.0000000000
      1033        54  POPC      HB              3.8089359697       14.8047863184       17.6362829643  MEMB      2               0.0000000000
      1034        54  POPC      C2              2.7977095667       15.4733992369       15.8377410206  MEMB      2               0.0000000000
      1035        54  POPC      HS              2.3034350711       14.4750846997       15.9116374206  MEMB      2               0.0000000000
      1036        54  POPC      O21             3.7768531492       15.4527465913       14.7916725003  MEMB      2               0.0000000000
      1037        54  POPC      C21             4.7275115465       14.5668489961       14.9534178532  MEMB      2               0.0000000000
      1038        54  POPC      O22             4.6582498973       13.5377369209       15.6038707009  MEMB      2               0.0000000000
      1039        54  POPC      C22             5.9456689652       15.0264572008       14.1598625666  MEMB      2               0.0000000000
      1040        54  POPC      H2R             6.7244963045       15.3113806727       14.8961102584  MEMB      2               0.0000000000
      1041        54  POPC      H2S             5.6908096367       15.9260592872       13.5680574604  MEMB      2               0.0000000000
      1042        54  POPC      C3              1.6840552430       16.4745255997       15.3982220235  MEMB      2               0.0000000000
      1043        54  POPC      HX              0.9277233852       16.5158741556       16.2126486314  MEMB      2               0.0000000000
      1044        54  POPC      HY              1.1720125089       16.0682134247       14.4953543939  MEMB      2               0.0000000000
      1045        54  POPC      O31             2.2056361436       17.7993419679       15.1728838660  MEMB      2               0.0000000000
      1046        54  POPC      C31             2.8134376566       17.9944962468       14.0140398726  MEMB      2               0.0000000000
      1047        54  POPC      O32             2.5710892494       17.3880355368       12.9755617376  MEMB      2               0.0000000000
      1048        54  POPC      C32             3.8690033483       19.0807182266       14.1945784366  MEMB      2               0.0000000000
      1049        54  POPC      H2X             4.6273145660       18.6961127626       14.9107745303  MEMB      2               0.0000000000
      1050        54  POPC      H2Y             3.3677072874       19.9536381528       14.6632206829  MEMB      2               0.0000000000
      1051        54  POPC      C23             6.4660778208       13.9118706586       13.2353489169  MEMB      2               0.0000000000
      1052        54  POPC      H3R             6.8614778288       13.0861830702       13.8703728232  MEMB      2               0.0000000000
      1053        54  POPC      H3S             7.3171079410       14.3048335846       12.6334229129  MEMB      2               0.0000000000
      1054        54  POPC      C24             5.3932886822       13.3241105240       12.3022142253  MEMB      2               0.0000000000
      1055        54  POPC      H4R             4.5505288220       12.9147911552       12.9017837563  MEMB      2               0.0000000000
      1056        54  POPC      H4S             5.8605574253       12.4656701946       11.7849530955  MEMB      2               0.0000000000
      1057        54  POPC      C25             4.8352394295       14.2599853622       11.2241590753  MEMB      2               0.0000000000
      1058        54  POPC      H5R             4.4758690940       15.1945660866       11.7081725495  MEMB      2               0.0000000000
      1059        54  POPC      H5S             3.9736267159       13.7557555694       10.7348846633  MEMB      2               0.0000000000
      1060        54  POPC      C26             5.8519087456       14.6064062374       10.1296205040  MEMB      2               0.0000000000
      1061        54  POPC      H6R             6.7797036595       14.9903362663       10.6030728731  MEMB      2               0.0000000000
      1062        54  POPC      H6S             5.4299423800       15.4082344693        9.4960673079  MEMB      2               0.0000000000
      1063        54  POPC      C27             6.1823003354       13.4660434854        9.1542547912  MEMB      2               0.0000000000
      1064        54  POPC      H7R             5.2655316340       13.2369098554        8.5641380801  MEMB      2               0.0000000000
      1065        54  POPC      H7S             6.4538271137       12.5494174945        9.7074718519  MEMB      2               0.0000000000
      1066        54  POPC      C28             7.3176641143       13.8341169296        8.1775169950  MEMB      2               0.0000000000
      1067        54  POPC      H8R             7.1920622826       14.8968900964        7.8707901717  MEMB      2               0.0000000000
      1068        54  POPC      H8S             7.1905289259       13.2296766784        7.2511450961  MEMB      2               0.0000000000
      1069        54  POPC      C29             8.6893592755       13.5671118744        8.7535394499  MEMB      2               0.0000000000
      1070        54  POPC      H91             9.0265281598       12.5243286146        8.6577206177  MEMB      2               0.0000000000
      1071        54  POPC      C210            9.5142181957       14.4496300040        9.3488652826  MEMB      2               0.0000000000
      1072        54  POPC      H101           10.4935426116       14.0957290776        9.7054281962  MEMB      2               0.0000000000
      1073        54  POPC      C211            9.2604999166       15.9181466151        9.5831370740  MEMB      2               0.0000000000
      1074        54  POPC      H11R            9.5028700006       16.1741500932       10.6387488391  MEMB      2               0.0000000000
      1075        54  POPC      H11S            8.1897922352       16.1828911813        9.4341519014  MEMB      2               0.0000000000
      1076        54  POPC      C212           10.0882211990       16.8153870120        8.6457311085  MEMB      2               0.0000000000
      1077        54  POPC      H12R           11.1702178951       16.5689398374        8.7139030852  MEMB      2               0.0000000000
      1078        54  POPC      H12S            9.9642207428       17.8686520182        8.9895967519  MEMB      2               0.0000000000
      1079        54  POPC      C213            9.6124305373       16.7253798052        7.1875189587  MEMB      2               0.0000000000
      1080        54  POPC      H13R            8.5037767584       16.8382524659        7.1827830728  MEMB      2               0.0000000000
      1081        54  POPC      H13S            9.8483438334       15.7196116435        6.7737227874  MEMB      2               0.0000000000
      1082        54  POPC      C214           10.2129469800       17.8143154015        6.2908545076  MEMB      2               0.0000000000
      1083        54  POPC      H14R           11.2663057354       17.5560053627        6.0493938314  MEMB      2               0.0000000000
      1084        54  POPC      H14S           10.2112498959       18.7749633279        6.8550327231  MEMB      2               0.0000000000
      1085        54  POPC      C215            9.4228533004       18.0264344029        4.9911961546  MEMB      2               0.0000000000
      1086        54  POPC      H15R            9.7820458278       18.9604630791        4.5012933878  MEMB      2               0.0000000000
      1087        54  POPC      H15S            8.3462736944       18.1671258296        5.2392305025  MEMB      2               0.0000000000
      1088        54  POPC      C216            9.5756137823       16.8682844298        3.9965332413  MEMB      2               0.0000000000
      1089        54  POPC      H16R            9.2822220330       15.9138777088        4.4901918458  MEMB      2               0.0000000000
      1090        54  POPC      H16S           10.6443775064       16.7811737161        3.6975361415  MEMB      2               0.0000000000
      1091        54  POPC      C217            8.7078624445       17.0503584831        2.7462041036  MEMB      2               0.0000000000
      1092        54  POPC      H17R            8.9105198084       18.0485857862        2.2959962605  MEMB      2               0.0000000000
      1093        54  POPC      H17S            7.6368913302       17.0367281917        3.0543493919  MEMB      2               0.0000000000
      1094        54  POPC      C218            8.9461022271       15.9659527324        1.6933590306  MEMB      2               0.0000000000
      1095        54  POPC      H18R            9.9149620050       16.1369676990        1.1777472631  MEMB      2               0.0000000000
      1096        54  POPC      H18S            8.1378666868       15.9790358547        0.9302610606  MEMB      2               0.0000000000
      1097        54  POPC      H18T            8.9676388983       14.9617285755        2.1703961278  MEMB      2               0.0000000000
      1098        54  POPC      C33             4.5410257179       19.5220273704       12.8731794502  MEMB      2               0.0000000000
      1099        54  POPC      H3X             4.9398939555       20.5516130570       13.0216624944  MEMB      2               0.0000000000
      1100        54  POPC      H3Y             3.7876580673       19.5824282128       12.0583320492  MEMB      2               0.0000000000
      1101        54  POPC      C34             5.7279543834       18.6387489845       12.4562576320  MEMB      2               0.0000000000
      1102        54  POPC      H4X             5.3783321263       17.5979952981       12.2909034988  MEMB      2               0.0000000000
      1103        54  POPC      H4Y             6.4681745658       18.6105132409       13.2888335097  MEMB      2               0.0000000000
      1104        54  POPC      C35             6.4466457456       19.1349599916       11.1883343041  MEMB      2               0.0000000000
      1105        54  POPC      H5X             7.2442588463       18.4021828894       10.9239224112  MEMB      2               0.0000000000
      1106        54  POPC      H5Y             6.9474325043       20.1045565861       11.4119119537  MEMB      2               0.0000000000
      1107        54  POPC      C36             5.5286486011       19.3299025454        9.9691103009  MEMB      2               0.0000000000
      1108        54  POPC      H6X             6.1626676195       19.6393838704        9.1112891167  MEMB      2               0.0000000000
      1109        54  POPC      H6Y             4.8036978626       20.1458421435       10.1616550637  MEMB      2               0.0000000000
      1110        54  POPC      C37             4.8048056327       18.0508013552        9.5455072077  MEMB      2               0.0000000000
      1111        54  POPC      H7X             4.2117034303       17.6452259942       10.3900096766  MEMB      2               0.0000000000
      1112        54  POPC      H7Y             5.6243343386       17.3388257179        9.3002880280  MEMB      2               0.0000000000
      1113        54  POPC      C38             3.9226248949       18.2066851377        8.3009002109  MEMB      2               0.0000000000
      1114        54  POPC      H8X             4.5435970509       18.6758611898        7.5030172031  MEMB      2               0.0000000000
      1115        54  POPC      H8Y             3.0742017840       18.8930157929        8.5066771021  MEMB      2               0.0000000000
      1116        54  POPC      C39             3.4047633864       16.8615689001        7.7727003339  MEMB      2               0.0000000000
      1117        54  POPC      H9X             2.6371712688       16.4501932155        8.4517906117  MEMB      2               0.0000000000
      1118        54  POPC      H9Y             4.2545236781       16.1417615462        7.7420248786  MEMB      2               0.0000000000
      1119        54  POPC      C310            2.7976889704       16.9630446398        6.3687760233  MEMB      2               0.0000000000
      1120        54  POPC      H10X            3.6192794877       17.1570540407        5.6417641203  MEMB      2               0.0000000000
      1121        54  POPC      H10Y            2.1021125611       17.8311447580        6.3229976785  MEMB      2               0.0000000000
      1122        54  POPC      C311            2.0241718920       15.7048322648        5.9354028100  MEMB      2               0.0000000000
      1123        54  POPC      H11X            1.7534818290       15.8158070929        4.8603719858  MEMB      2               0.0000000000
      1124        54  POPC      H11Y            1.0667544861       15.6513482318        6.4990301172  MEMB      2               0.0000000000
      1125        54  POPC      C312            2.7770372294       14.3758523576        6.1301608865  MEMB      2               0.0000000000
      1126        54  POPC      H12X            2.1452570867       13.5527442276        5.7218696408  MEMB      2               0.0000000000
      1127        54  POPC      H12Y            2.9079107192       14.1791714039        7.2159919797  MEMB      2               0.0000000000
      1128        54  POPC      C313            4.1574854165       14.3021977262        5.4531518365  MEMB      2               0.0000000000
      1129        54  POPC      H13X            4.5734301819       13.2821430846        5.6228250330  MEMB      2               0.0000000000
      1130        54  POPC      H13Y            4.8577045644       15.0278054061        5.9224861922  MEMB      2               0.0000000000
      1131        54  POPC      C314            4.1089126655       14.5694982610        3.9428187319  MEMB      2               0.0000000000
      1132        54  POPC      H14X            3.7132844534       15.5913653736        3.7515251844  MEMB      2               0.0000000000
      1133        54  POPC      H14Y            3.4069554243       13.8433349563        3.4741086358  MEMB      2               0.0000000000
      1134        54  POPC      C315            5.4813222370       14.4495535026        3.2707832001  MEMB      2               0.0000000000
      1135        54  POPC      H15X            5.9098268654       13.4509582287        3.5130317679  MEMB      2               0.0000000000
      1136        54  POPC      H15Y            6.1668789775       15.2173083864        3.6973560492  MEMB      2               0.0000000000
      1137        54  POPC      C316            5.4064060847       14.6142047150        1.7506078042  MEMB      2               0.0000000000
      1138        54  POPC      H16X            5.1244613692       15.6563750063        1.4862996420  MEMB      2               0.0000000000
      1139        54  POPC      H16Y            4.6391241067       13.9290590875        1.3294845632  MEMB      2               0.0000000000
      1140        54  POPC      H16Z            6.3832271772       14.3770820767        1.2790801639  MEMB      2               0.0000000000
      1141        55  POPC      N              11.6787935904        5.0854472235       17.4914228923  MEMB      3               0.0000000000
      1142        55  POPC      C12            12.8608233321        5.2502631094       18.4394986023  MEMB      3               0.0000000000
      1143        55  POPC      H12A           13.5370749172        6.0060384618       18.0740060793  MEMB      3               0.0000000000
      1144        55  POPC      H12B           13.4215897187        4.3128794561       18.4253863430  MEMB      3               0.0000000000
      1145        55  POPC      C13            10.8936431422        6.3506290240       17.4026502899  MEMB      3               0.0000000000
      1146        55  POPC      H13A           10.0170880509        6.2165769841       16.7894831001  MEMB      3               0.0000000000
      1147        55  POPC      H13B           10.5873912520        6.6426377932       18.4032134583  MEMB      3               0.0000000000
      1148        55  POPC      H13C           11.4952658734        7.1573073657       16.9941122751  MEMB      3               0.0000000000
      1149        55  POPC      C14            12.1413642497        4.6604998798       16.1332586995  MEMB      3               0.0000000000
      1150        55  POPC      H14A           12.6729651950        5.4583954220       15.6217144472  MEMB      3               0.0000000000
      1151        55  POPC      H14B           12.8371066624        3.8254820643       16.2298548480  MEMB      3               0.0000000000
      1152        55  POPC      H14C           11.3109956865        4.3177542337       15.5246421166  MEMB      3               0.0000000000
      1153        55  POPC      C15            10.8352494577        3.9957270476       18.0689243173  MEMB      3               0.0000000000
      1154        55  POPC      H15A           11.4098354311        3.0748119485       18.0766518190  MEMB      3               0.0000000000
      1155        55  POPC      H15B            9.9027871966        3.8509620758       17.5586751035  MEMB      3               0.0000000000
      1156        55  POPC      H15C           10.6390785424        4.2000948091       19.1280775439  MEMB      3               0.0000000000
      1157        55  POPC      C11            12.5555455430        5.5230049924       19.9405774468  MEMB      3               0.0000000000
      1158        55  POPC      H11A           11.8427669082        6.3726119824       20.0224959332  MEMB      3               0.0000000000
      1159        55  POPC      H11B           13.4932262537        5.8614097211       20.4453973358  MEMB      3               0.0000000000
      1160        55  POPC      P              12.9357676820        3.1488759413       20.9486017293  MEMB      3               0.0000000000
      1161        55  POPC      O13            12.1312280465        2.0580553604       21.5696361567  MEMB      3               0.0000000000
      1162        55  POPC      O14            14.1534258061        3.6471233296       21.6350143333  MEMB      3               0.0000000000
      1163        55  POPC      O12            12.0014392151        4.3841359001       20.6101758588  MEMB      3               0.0000000000
      1164        55  POPC      O11            13.3247875624        2.7019250959       19.4835505392  MEMB      3               0.0000000000
      1165        55  POPC      C1             14.6567546436        2.2244047238       19.2858347263  MEMB      3               0.0000000000
      1166        55  POPC      HA             14.8033059653        1.2668364325       19.8371703351  MEMB      3               0.0000000000
      1167        55  POPC      HB             15.4358766988        2.9361571916       19.6549529915  MEMB      3               0.0000000000
      1168        55  POPC      C2             14.8376577461        1.9513818773       17.7820303726  MEMB      3               0.0000000000
      1169        55  POPC      HS             15.8033371563        1.4193078589       17.6501387286  MEMB      3               0.0000000000
      1170        55  POPC      O21            14.8022381207        3.1776516159       17.0057575723  MEMB      3               0.0000000000
      1171        55  POPC      C21            15.9018772212        3.9243378881       17.1749316913  MEMB      3               0.0000000000
      1172        55  POPC      O22            16.8648935427        3.5857159328       17.8338402598  MEMB      3               0.0000000000
      1173        55  POPC      C22            15.7694599006        5.2458394506       16.4473484088  MEMB      3               0.0000000000
      1174        55  POPC      H2R            16.6864196918        5.8352418825       16.6560989100  MEMB      3               0.0000000000
      1175        55  POPC      H2S            14.9142807426        5.8028653921       16.8710713649  MEMB      3               0.0000000000
      1176        55  POPC      C3             13.7131854992        0.9818642968       17.3259221366  MEMB      3               0.0000000000
      1177        55  POPC      HX             12.7338863469        1.4594318490       17.5512993967  MEMB      3               0.0000000000
      1178        55  POPC      HY             13.8015433694        0.0636576343       17.9473460241  MEMB      3               0.0000000000
      1179        55  POPC      O31            13.8062601306        0.6785197021       15.9244399186  MEMB      3               0.0000000000
      1180        55  POPC      C31            12.8991104831       -0.2360882958       15.5343520686  MEMB      3               0.0000000000
      1181        55  POPC      O32            12.2107420740       -0.8900970415       16.2962849799  MEMB      3               0.0000000000
      1182        55  POPC      C32            12.9765592223       -0.4052530452       14.0178402968  MEMB      3               0.0000000000
      1183        55  POPC      H2X            12.2137328842       -1.1447320483       13.7012294424  MEMB      3               0.0000000000
      1184        55  POPC      H2Y            13.9793557593       -0.8317376690       13.8029917813  MEMB      3               0.0000000000
      1185        55  POPC      C23            15.5766671039        5.0346914964       14.9374174575  MEMB      3               0.0000000000
      1186        55  POPC      H3R            14.7270969266        4.3407393687       14.7440248423  MEMB      3               0.0000000000
      1187        55  POPC      H3S            16.4938460603        4.5777797288       14.5024652496  MEMB      3               0.0000000000
      1188        55  POPC      C24            15.3108280258        6.3424647193       14.1958383099  MEMB      3               0.0000000000
      1189        55  POPC      H4R            16.1776805195        7.0271087221       14.3526251668  MEMB      3               0.0000000000
      1190        55  POPC      H4S            14.4111041017        6.8472348659       14.6107059708  MEMB      3               0.0000000000
      1191        55  POPC      C25            15.1234534114        6.0861661825       12.6946839201  MEMB      3               0.0000000000
      1192        55  POPC      H5R            14.2921015078        5.3663796773       12.5277704643  MEMB      3               0.0000000000
      1193        55  POPC      H5S            16.0557796077        5.6169481771       12.3013378744  MEMB      3               0.0000000000
      1194        55  POPC      C26            14.8561925727        7.3863590001       11.9346788914  MEMB      3               0.0000000000
      1195        55  POPC      H6R            15.6711836293        8.0921527992       12.2131082043  MEMB      3               0.0000000000
      1196        55  POPC      H6S            13.9024998055        7.8415084196       12.2751965655  MEMB      3               0.0000000000
      1197        55  POPC      C27            14.8576531618        7.2357856022       10.4063809864  MEMB      3               0.0000000000
      1198        55  POPC      H7R            15.8008505141        6.7304091930       10.0936009516  MEMB      3               0.0000000000
      1199        55  POPC      H7S            14.8722097890        8.2700320875        9.9924482543  MEMB      3               0.0000000000
      1200        55  POPC      C28            13.6465348477        6.4877652375        9.8183552658  MEMB      3               0.0000000000
      1201        55  POPC      H8R            12.7262357398        6.8553070934       10.3207424316  MEMB      3               0.0000000000
      1202        55  POPC      H8S            13.7322697036        5.4022610506       10.0510324739  MEMB      3               0.0000000000
      1203        55  POPC      C29            13.5452481977        6.7418106872        8.3316618334  MEMB      3               0.0000000000
      1204        55  POPC      H91            12.8923374283        7.5825813170        8.0487288096  MEMB      3               0.0000000000
      1205        55  POPC      C210           14.1907126008        6.0788671234        7.3545161920  MEMB      3               0.0000000000
      1206        55  POPC      H101           14.0186851593        6.3842423115        6.3107162517  MEMB      3               0.0000000000
      1207        55  POPC      C211           15.1557025946        4.9329130046        7.5319590788  MEMB      3               0.0000000000
      1208        55  POPC      H11R           15.2061831633        4.6050043192        8.5940116720  MEMB      3               0.0000000000
      1209        55  POPC      H11S           16.1847828575        5.2468648943        7.2466547379  MEMB      3               0.0000000000
      1210        55  POPC      C212           14.7642760553        3.7058904726        6.6851105117  MEMB      3               0.0000000000
      1211        55  POPC      H12R           13.6922517085        3.4553356510        6.8388410314  MEMB      3               0.0000000000
      1212        55  POPC      H12S           15.3552475882        2.8333494670        7.0473990461  MEMB      3               0.0000000000
      1213        55  POPC      C213           15.0523079949        3.8774102736        5.1859861265  MEMB      3               0.0000000000
      1214        55  POPC      H13R           16.1449907180        4.0515315696        5.0642559488  MEMB      3               0.0000000000
      1215        55  POPC      H13S           14.5205670058        4.7682853460        4.7865766108  MEMB      3               0.0000000000
      1216        55  POPC      C214           14.6547440110        2.6487504070        4.3564728415  MEMB      3               0.0000000000
      1217        55  POPC      H14R           13.5492539691        2.6335914288        4.2365238890  MEMB      3               0.0000000000
      1218        55  POPC      H14S           14.9458215871        1.7298839973        4.9113046501  MEMB      3               0.0000000000
      1219        55  POPC      C215           15.3492152642        2.6291224188        2.9886565390  MEMB      3               0.0000000000
      1220        55  POPC      H15R           16.4497403818        2.6097588635        3.1601545289  MEMB      3               0.0000000000
      1221        55  POPC      H15S           15.1082678103        3.5633650224        2.4341026468  MEMB      3               0.0000000000
      1222        55  POPC      C216           14.9903001257        1.4179172009        2.1170895638  MEMB      3               0.0000000000
      1223        55  POPC      H16R           15.2528078712        0.4856875810        2.6616712513  MEMB      3               0.0000000000
      1224        55  POPC      H16S           15.6209028993        1.4556626674        1.2003474298  MEMB      3               0.0000000000
      1225        55  POPC      C217           13.5151204713        1.3653660205        1.7010668161  MEMB      3               0.0000000000
      1226        55  POPC      H17R           13.2305394549        2.3590012900        1.2880221143  MEMB      3               0.0000000000
      1227        55  POPC      H17S           12.8886860105        1.1831667812        2.6053330912  MEMB      3               0.0000000000
      1228        55  POPC      C218           13.2299393305        0.2822703685        0.6580295103  MEMB      3               0.0000000000
      1229        55  POPC      H18R           13.8397253425        0.4523785986       -0.2544891389  MEMB      3               0.0000000000
      1230        55  POPC      H18S           12.1553230760        0.2740129772        0.3856912386  MEMB      3               0.0000000000
      1231        55  POPC      H18T           13.4932212732       -0.7188467203        1.0627108391  MEMB      3               0.0000000000
      1232        55  POPC      C33            12.8011035299        0.9283894630       13.2522814816  MEMB      3               0.0000000000
      1233        55  POPC      H3X            13.2688317227        1.7525656751       13.8444887868  MEMB      3               0.0000000000
      1234        55  POPC      H3Y            11.7330842705        1.1955547575       13.1237283788  MEMB      3               0.0000000000
      1235        55  POPC      C34            13.5451338914        0.9223457037       11.9081194693  MEMB      3               0.0000000000
      1236        55  POPC      H4X            14.4300465055        0.2622051385       12.0057128511  MEMB      3               0.0000000000
      1237        55  POPC      H4Y            13.8795194706        1.9684786781       11.7160951361  MEMB      3               0.0000000000
      1238        55  POPC      C35            12.7881190600        0.4812465086       10.6553618437  MEMB      3               0.0000000000
      1239        55  POPC      H5X            11.8267082808        1.0373175059       10.6442672575  MEMB      3               0.0000000000
      1240        55  POPC      H5Y            12.5715772300       -0.6087433681       10.7087178935  MEMB      3               0.0000000000
      1241        55  POPC      C36            13.5946789840        0.7722755620        9.3766420789  MEMB      3               0.0000000000
      1242        55  POPC      H6X            14.4269601710        0.0365930426        9.3066174709  MEMB      3               0.0000000000
      1243        55  POPC      H6Y            14.0525351337        1.7833325400        9.4702690853  MEMB      3               0.0000000000
      1244        55  POPC      C37            12.7832137567        0.7580442476        8.0690095829  MEMB      3               0.0000000000
      1245        55  POPC      H7X            12.4170542236       -0.2724742379        7.8670613221  MEMB      3               0.0000000000
      1246        55  POPC      H7Y            13.4554340618        1.0374885894        7.2272763642  MEMB      3               0.0000000000
      1247        55  POPC      C38            11.6004785685        1.7385741812        8.0744789530  MEMB      3               0.0000000000
      1248        55  POPC      H8X            11.9694067736        2.7638473652        8.2967382522  MEMB      3               0.0000000000
      1249        55  POPC      H8Y            10.8852591991        1.4739752107        8.8827169251  MEMB      3               0.0000000000
      1250        55  POPC      C39            10.8075849917        1.7384540727        6.7618955054  MEMB      3               0.0000000000
      1251        55  POPC      H9X            10.6320867908        0.6840819640        6.4487665703  MEMB      3               0.0000000000
      1252        55  POPC      H9Y            11.4107392113        2.2265194727        5.9643716523  MEMB      3               0.0000000000
      1253        55  POPC      C310            9.4434250600        2.4368922079        6.9085942311  MEMB      3               0.0000000000
      1254        55  POPC      H10X            8.8340296341        1.8674365289        7.6490002201  MEMB      3               0.0000000000
      1255        55  POPC      H10Y            8.9069091351        2.3858867842        5.9364818830  MEMB      3               0.0000000000
      1256        55  POPC      C311            9.5187274700        3.9038311415        7.3817230022  MEMB      3               0.0000000000
      1257        55  POPC      H11X            9.8705306189        3.9162461054        8.4383064840  MEMB      3               0.0000000000
      1258        55  POPC      H11Y            8.4963558145        4.3428828162        7.3681253106  MEMB      3               0.0000000000
      1259        55  POPC      C312           10.4588977867        4.7997637966        6.5563084720  MEMB      3               0.0000000000
      1260        55  POPC      H12X           11.4908546239        4.3882120276        6.6175884973  MEMB      3               0.0000000000
      1261        55  POPC      H12Y           10.4972967328        5.8159351515        7.0071906107  MEMB      3               0.0000000000
      1262        55  POPC      C313           10.0579464030        4.9282703969        5.0803403130  MEMB      3               0.0000000000
      1263        55  POPC      H13X            9.1940334491        5.6213803801        4.9820649800  MEMB      3               0.0000000000
      1264        55  POPC      H13Y            9.7389318294        3.9368592974        4.6914238101  MEMB      3               0.0000000000
      1265        55  POPC      C314           11.2282147343        5.3931436137        4.2099721370  MEMB      3               0.0000000000
      1266        55  POPC      H14X           12.0599640214        4.6602693916        4.3306121742  MEMB      3               0.0000000000
      1267        55  POPC      H14Y           11.5964349455        6.3811679078        4.5635874577  MEMB      3               0.0000000000
      1268        55  POPC      C315           10.8661285109        5.4691039368        2.7228934278  MEMB      3               0.0000000000
      1269        55  POPC      H15X           10.1535870832        6.3119399434        2.5638877417  MEMB      3               0.0000000000
      1270        55  POPC      H15Y           10.3529179748        4.5273240479        2.4258350328  MEMB      3               0.0000000000
      1271        55  POPC      C316           12.0998780523        5.6589182090        1.8455267934  MEMB      3               0.0000000000
      1272        55  POPC      H16X           11.8297859905        5.7047730173        0.7700501937  MEMB      3               0.0000000000
      1273        55  POPC      H16Y           12.8259067322        4.8318671126        2.0005914112  MEMB      3               0.0000000000
      1274        55  POPC      H16Z           12.5929997362        6.6102902680        2.1316133405  MEMB      3               0.0000000000
      1275        56  POPC      N              -5.1075818662       12.7951553659       19.7165537088  MEMB      4               0.0000000000
      1276        56  POPC      C12            -4.3705480095       13.6414766223       18.6875410403  MEMB      4               0.0000000000
      1277        56  POPC      H12A           -5.0350335514       13.8016136285       17.8414672209  MEMB      4               0.0000000000
      1278        56  POPC      H12B           -3.4926477221       13.1188687922       18.3479382980  MEMB      4               0.0000000000
      1279        56  POPC      C13            -6.4623333186       13.4038107717       19.9119957065  MEMB      4               0.0000000000
      1280        56  POPC      H13A           -7.0200368248       13.3970598538       18.9756391380  MEMB      4               0.0000000000
      1281        56  POPC      H13B           -7.0157270288       12.9085824082       20.6822855884  MEMB      4               0.0000000000
      1282        56  POPC      H13C           -6.3476495933       14.4594463826       20.1849679865  MEMB      4               0.0000000000
      1283        56  POPC      C14            -5.3118340248       11.3731278782       19.2898898255  MEMB      4               0.0000000000
      1284        56  POPC      H14A           -5.7435325749       10.7962086789       20.1071500645  MEMB      4               0.0000000000
      1285        56  POPC      H14B           -6.0033246697       11.3312035981       18.4562712124  MEMB      4               0.0000000000
      1286        56  POPC      H14C           -4.3770439689       10.8904303875       19.0331936705  MEMB      4               0.0000000000
      1287        56  POPC      C15            -4.3999606236       12.8199025069       21.0381615997  MEMB      4               0.0000000000
      1288        56  POPC      H15A           -3.4500454558       12.2850927395       21.0238150997  MEMB      4               0.0000000000
      1289        56  POPC      H15B           -5.0135744513       12.3487302651       21.8068470188  MEMB      4               0.0000000000
      1290        56  POPC      H15C           -4.1988450390       13.8410862866       21.3455743727  MEMB      4               0.0000000000
      1291        56  POPC      C11            -3.9214825835       15.0699147307       19.0829841855  MEMB      4               0.0000000000
      1292        56  POPC      H11A           -3.4119609244       15.5560692630       18.2201911863  MEMB      4               0.0000000000
      1293        56  POPC      H11B           -3.1771155110       15.0048588881       19.9083111466  MEMB      4               0.0000000000
      1294        56  POPC      P              -6.0398642775       16.5875776077       18.5749048020  MEMB      4               0.0000000000
      1295        56  POPC      O13            -5.4056879719       17.8366550435       18.0948204951  MEMB      4               0.0000000000
      1296        56  POPC      O14            -7.3016716282       16.6042012741       19.3480133875  MEMB      4               0.0000000000
      1297        56  POPC      O12            -5.0102899204       15.8521692677       19.5163833076  MEMB      4               0.0000000000
      1298        56  POPC      O11            -6.2337607979       15.5453577132       17.3634565997  MEMB      4               0.0000000000
      1299        56  POPC      C1             -7.6080235272       15.4223585466       16.9267443970  MEMB      4               0.0000000000
      1300        56  POPC      HA             -8.0637007609       16.4193239697       16.7184459879  MEMB      4               0.0000000000
      1301        56  POPC      HB             -8.2055148989       14.9495753181       17.7443812191  MEMB      4               0.0000000000
      1302        56  POPC      C2             -7.8751910959       14.5301197329       15.6614089716  MEMB      4               0.0000000000
      1303        56  POPC      HS             -8.8179042218       13.9687779958       15.8767695267  MEMB      4               0.0000000000
      1304        56  POPC      O21            -6.8161485853       13.6211313303       15.3746261946  MEMB      4               0.0000000000
      1305        56  POPC      C21            -6.6344625188       12.6684237409       16.2288105244  MEMB      4               0.0000000000
      1306        56  POPC      O22            -7.3651909327       12.3718512357       17.1666127911  MEMB      4               0.0000000000
      1307        56  POPC      C22            -5.3517934443       11.9167867620       15.8582553116  MEMB      4               0.0000000000
      1308        56  POPC      H2R            -5.5584445360       10.8378327148       16.0145746110  MEMB      4               0.0000000000
      1309        56  POPC      H2S            -4.5245069047       12.2233907064       16.5211658159  MEMB      4               0.0000000000
      1310        56  POPC      C3             -8.1460151753       15.3294934446       14.3491462505  MEMB      4               0.0000000000
      1311        56  POPC      HX             -8.7625951335       16.2216327060       14.5962104240  MEMB      4               0.0000000000
      1312        56  POPC      HY             -8.7936782213       14.6518814805       13.7336624372  MEMB      4               0.0000000000
      1313        56  POPC      O31            -6.9164463506       15.7342168532       13.6778685069  MEMB      4               0.0000000000
      1314        56  POPC      C31            -6.8634372213       15.4402611472       12.3677469282  MEMB      4               0.0000000000
      1315        56  POPC      O32            -7.7990237828       14.9882942310       11.7310351276  MEMB      4               0.0000000000
      1316        56  POPC      C32            -5.4776515850       15.7732799318       11.7651407716  MEMB      4               0.0000000000
      1317        56  POPC      H2X            -4.8357284120       14.8947092370       11.9694608102  MEMB      4               0.0000000000
      1318        56  POPC      H2Y            -5.0558241048       16.6446727250       12.3002278935  MEMB      4               0.0000000000
      1319        56  POPC      C23            -4.9304600589       12.1451494227       14.3870824115  MEMB      4               0.0000000000
      1320        56  POPC      H3R            -4.4655188378       13.1454878976       14.2447678156  MEMB      4               0.0000000000
      1321        56  POPC      H3S            -5.8602995200       12.1413082829       13.7755309443  MEMB      4               0.0000000000
      1322        56  POPC      C24            -3.9986498135       11.0466575578       13.8770902435  MEMB      4               0.0000000000
      1323        56  POPC      H4R            -4.3693165058       10.0607945350       14.2416075146  MEMB      4               0.0000000000
      1324        56  POPC      H4S            -2.9734494453       11.1912483952       14.2851234267  MEMB      4               0.0000000000
      1325        56  POPC      C25            -3.9302329781       10.9737883252       12.3467214295  MEMB      4               0.0000000000
      1326        56  POPC      H5R            -3.4086009701       10.0232639708       12.0892975069  MEMB      4               0.0000000000
      1327        56  POPC      H5S            -3.2942090593       11.7956892436       11.9552978058  MEMB      4               0.0000000000
      1328        56  POPC      C26            -5.3064590112       11.0060864558       11.6468538978  MEMB      4               0.0000000000
      1329        56  POPC      H6R            -6.1332599435       10.7012891150       12.3192781793  MEMB      4               0.0000000000
      1330        56  POPC      H6S            -5.2990514266       10.2429031530       10.8606359069  MEMB      4               0.0000000000
      1331        56  POPC      C27            -5.6214741441       12.3245913320       10.9208240257  MEMB      4               0.0000000000
      1332        56  POPC      H7R            -4.6609049107       12.8268295859       10.6619230249  MEMB      4               0.0000000000
      1333        56  POPC      H7S            -6.1804765310       12.9876345230       11.6085051951  MEMB      4               0.0000000000
      1334        56  POPC      C28            -6.4010079409       12.1517099758        9.5966236523  MEMB      4               0.0000000000
      1335        56  POPC      H8R            -5.8087698851       11.4875148076        8.9303248081  MEMB      4               0.0000000000
      1336        56  POPC      H8S            -6.4228382914       13.1414958420        9.0922068248  MEMB      4               0.0000000000
      1337        56  POPC      C29            -7.7887954184       11.5851605726        9.7798781338  MEMB      4               0.0000000000
      1338        56  POPC      H91            -7.8142871234       10.6012313726       10.2714358342  MEMB      4               0.0000000000
      1339        56  POPC      C210           -8.9519285466       12.1346283791        9.3782729364  MEMB      4               0.0000000000
      1340        56  POPC      H101           -9.8869694304       11.5811783739        9.5614445827  MEMB      4               0.0000000000
      1341        56  POPC      C211           -9.1368207865       13.4457984197        8.6500423093  MEMB      4               0.0000000000
      1342        56  POPC      H11R           -8.2112292579       14.0605682617        8.6385829668  MEMB      4               0.0000000000
      1343        56  POPC      H11S           -9.9062099928       14.0614536273        9.1664136568  MEMB      4               0.0000000000
      1344        56  POPC      C212           -9.5867300145       13.1869256292        7.1993970278  MEMB      4               0.0000000000
      1345        56  POPC      H12R          -10.5633558284       12.6533006819        7.2306048824  MEMB      4               0.0000000000
      1346        56  POPC      H12S           -8.8627435276       12.5170771048        6.6846882623  MEMB      4               0.0000000000
      1347        56  POPC      C213           -9.7779712356       14.4680625528        6.3704263115  MEMB      4               0.0000000000
      1348        56  POPC      H13R          -10.3567876997       15.1925191987        6.9860946664  MEMB      4               0.0000000000
      1349        56  POPC      H13S          -10.4015548365       14.2215373060        5.4826011869  MEMB      4               0.0000000000
      1350        56  POPC      C214           -8.4751957518       15.1368679054        5.8871332630  MEMB      4               0.0000000000
      1351        56  POPC      H14R           -7.8524303676       15.4141993594        6.7673543898  MEMB      4               0.0000000000
      1352        56  POPC      H14S           -8.7517601642       16.0813227378        5.3645501598  MEMB      4               0.0000000000
      1353        56  POPC      C215           -7.6181256738       14.2941461363        4.9222640283  MEMB      4               0.0000000000
      1354        56  POPC      H15R           -7.1851295715       13.4305730133        5.4699252580  MEMB      4               0.0000000000
      1355        56  POPC      H15S           -6.7681634117       14.9250201244        4.5743744710  MEMB      4               0.0000000000
      1356        56  POPC      C216           -8.4015472507       13.7828324683        3.7030473376  MEMB      4               0.0000000000
      1357        56  POPC      H16R           -9.0397874802       14.6202960186        3.3390619152  MEMB      4               0.0000000000
      1358        56  POPC      H16S           -9.0795359366       12.9552771553        4.0117658944  MEMB      4               0.0000000000
      1359        56  POPC      C217           -7.5278085105       13.3035264136        2.5313787740  MEMB      4               0.0000000000
      1360        56  POPC      H17R           -6.6944305393       14.0247271138        2.3772459687  MEMB      4               0.0000000000
      1361        56  POPC      H17S           -8.1593513179       13.3302149432        1.6112595683  MEMB      4               0.0000000000
      1362        56  POPC      C218           -6.9774665902       11.8833124590        2.6912648001  MEMB      4               0.0000000000
      1363        56  POPC      H18R           -7.7627778934       11.1987222333        3.0795347086  MEMB      4               0.0000000000
      1364        56  POPC      H18S           -6.1293810348       11.8769384094        3.4025758806  MEMB      4               0.0000000000
      1365        56  POPC      H18T           -6.6104018423       11.4825000943        1.7217833035  MEMB      4               0.0000000000
      1366        56  POPC      C33            -5.5076153029       16.0381371564       10.2250545986  MEMB      4               0.0000000000
      1367        56  POPC      H3X            -5.9107080948       17.0528024224       10.0202953347  MEMB      4               0.0000000000
      1368        56  POPC      H3Y            -6.2113285496       15.3047661858        9.7636765735  MEMB      4               0.0000000000
      1369        56  POPC      C34            -4.1699540360       15.8852459001        9.4626844136  MEMB      4               0.0000000000
      1370        56  POPC      H4X            -4.4326831194       15.5625664591        8.4269581724  MEMB      4               0.0000000000
      1371        56  POPC      H4Y            -3.5627450419       15.0768151232        9.9176214642  MEMB      4               0.0000000000
      1372        56  POPC      C35            -3.3620247829       17.1936096277        9.3317877394  MEMB      4               0.0000000000
      1373        56  POPC      H5X            -3.1296945309       17.5612050598       10.3558360259  MEMB      4               0.0000000000
      1374        56  POPC      H5Y            -4.0022181109       17.9626732749        8.8429394666  MEMB      4               0.0000000000
      1375        56  POPC      C36            -2.0404169530       17.0857973618        8.5344583984  MEMB      4               0.0000000000
      1376        56  POPC      H6X            -1.3773354933       16.3642220329        9.0582034552  MEMB      4               0.0000000000
      1377        56  POPC      H6Y            -1.5395579662       18.0813407234        8.5468395776  MEMB      4               0.0000000000
      1378        56  POPC      C37            -2.1649277748       16.6451541871        7.0604000143  MEMB      4               0.0000000000
      1379        56  POPC      H7X            -2.7871738916       15.7296210863        6.9784665203  MEMB      4               0.0000000000
      1380        56  POPC      H7Y            -1.1475428776       16.3764995326        6.6919053906  MEMB      4               0.0000000000
      1381        56  POPC      C38            -2.7010061847       17.7328078769        6.1120953457  MEMB      4               0.0000000000
      1382        56  POPC      H8X            -2.0264682349       18.6165758233        6.1660260245  MEMB      4               0.0000000000
      1383        56  POPC      H8Y            -3.7122284359       18.0602044366        6.4394077247  MEMB      4               0.0000000000
      1384        56  POPC      C39            -2.7741077886       17.2537292195        4.6517475091  MEMB      4               0.0000000000
      1385        56  POPC      H9X            -3.6083199596       16.5218203151        4.5593078846  MEMB      4               0.0000000000
      1386        56  POPC      H9Y            -1.8349475145       16.7162141063        4.3895891089  MEMB      4               0.0000000000
      1387        56  POPC      C310           -2.9825445544       18.3922152328        3.6417062451  MEMB      4               0.0000000000
      1388        56  POPC      H10X           -2.0670716366       19.0246389697        3.5982329397  MEMB      4               0.0000000000
      1389        56  POPC      H10Y           -3.8247058537       19.0336882456        3.9863308746  MEMB      4               0.0000000000
      1390        56  POPC      C311           -3.3090529629       17.8726854468        2.2332075651  MEMB      4               0.0000000000
      1391        56  POPC      H11X           -4.1727892060       17.1735450264        2.3135957501  MEMB      4               0.0000000000
      1392        56  POPC      H11Y           -2.4446363331       17.2893885813        1.8448707634  MEMB      4               0.0000000000
      1393        56  POPC      C312           -3.6714757853       18.9914410017        1.2401861707  MEMB      4               0.0000000000
      1394        56  POPC      H12X           -3.0269497736       18.9167814697        0.3356423862  MEMB      4               0.0000000000
      1395        56  POPC      H12Y           -3.4685249812       19.9733155124        1.7213829354  MEMB      4               0.0000000000
      1396        56  POPC      C313           -5.1486967158       18.9324369887        0.8125259179  MEMB      4               0.0000000000
      1397        56  POPC      H13X           -5.4650394785       19.9053479308        0.3760147301  MEMB      4               0.0000000000
      1398        56  POPC      H13Y           -5.7435775300       18.7728140222        1.7360250470  MEMB      4               0.0000000000
      1399        56  POPC      C314           -5.3883943980       17.8228699881       -0.2221857989  MEMB      4               0.0000000000
      1400        56  POPC      H14X           -4.5900455079       17.0567457331       -0.1063777110  MEMB      4               0.0000000000
      1401        56  POPC      H14Y           -5.2497150860       18.2576696464       -1.2393988333  MEMB      4               0.0000000000
      1402        56  POPC      C315           -6.7434646506       17.0865988365       -0.1868358585  MEMB      4               0.0000000000
      1403        56  POPC      H15X           -6.5198775812       16.0325871620       -0.4739285930  MEMB      4               0.0000000000
      1404        56  POPC      H15Y           -7.3918517052       17.5196757693       -0.9786105949  MEMB      4               0.0000000000
      1405        56  POPC      C316           -7.5386930107       17.0282063712        1.1213207975  MEMB      4               0.0000000000
      1406        56  POPC      H16X           -6.8743348296       16.8024020787        1.9816987880  MEMB      4               0.0000000000
      1407        56  POPC      H16Y           -8.3105762166       16.2296840901        1.0580369817  MEMB      4               0.0000000000
      1408        56  POPC      H16Z           -8.0562703114       17.9947026212        1.3019633414  MEMB      4               0.0000000000
      1409        57  POPC      N              -8.5548212357      -13.6326768710       20.4042023626  MEMB      5               0.0000000000
      1410        57  POPC      C12            -9.1280073416      -14.9619010254       20.8663701492  MEMB      5               0.0000000000
      1411        57  POPC      H12A           -9.8338244764      -14.8324681254       21.6781387478  MEMB      5               0.0000000000
      1412        57  POPC      H12B           -8.3201731287      -15.5878078274       21.2522208171  MEMB      5               0.0000000000
      1413        57  POPC      C13            -7.5862199986      -13.8674292601       19.2793541363  MEMB      5               0.0000000000
      1414        57  POPC      H13A           -8.0931986820      -14.4021391206       18.4737530115  MEMB      5               0.0000000000
      1415        57  POPC      H13B           -7.1455980167      -12.9624409953       18.9151618519  MEMB      5               0.0000000000
      1416        57  POPC      H13C           -6.8030515500      -14.5617126235       19.5909688568  MEMB      5               0.0000000000
      1417        57  POPC      C14            -9.6738670650      -12.7418861713       19.9604402595  MEMB      5               0.0000000000
      1418        57  POPC      H14A           -9.3484419025      -11.7461838937       19.6923274356  MEMB      5               0.0000000000
      1419        57  POPC      H14B          -10.1559450510      -13.2058167837       19.1086339299  MEMB      5               0.0000000000
      1420        57  POPC      H14C          -10.4406713774      -12.6575621817       20.7329255410  MEMB      5               0.0000000000
      1421        57  POPC      C15            -7.7452133801      -13.0314498532       21.4919590485  MEMB      5               0.0000000000
      1422        57  POPC      H15A           -7.0759874626      -13.7705002755       21.9263317544  MEMB      5               0.0000000000
      1423        57  POPC      H15B           -8.3705362525      -12.6154142986       22.2674966404  MEMB      5               0.0000000000
      1424        57  POPC      H15C           -7.1308333753      -12.2327265514       21.1005181307  MEMB      5               0.0000000000
      1425        57  POPC      C11            -9.7776867160      -15.7886555016       19.7537977690  MEMB      5               0.0000000000
      1426        57  POPC      H11A          -10.5108153839      -15.1885514163       19.1744870165  MEMB      5               0.0000000000
      1427        57  POPC      H11B          -10.3559624589      -16.6376002298       20.1884037164  MEMB      5               0.0000000000
      1428        57  POPC      P              -7.9302062658      -17.5258833834       19.1969919918  MEMB      5               0.0000000000
      1429        57  POPC      O13            -8.2872523463      -17.8262568931       20.6113332617  MEMB      5               0.0000000000
      1430        57  POPC      O14            -6.4996346783      -17.2627581394       18.8868336198  MEMB      5               0.0000000000
      1431        57  POPC      O12            -8.7463806972      -16.2330622274       18.8777141065  MEMB      5               0.0000000000
      1432        57  POPC      O11            -8.7211436283      -18.4010765182       18.1288520973  MEMB      5               0.0000000000
      1433        57  POPC      C1             -9.9217656893      -19.1192034962       18.4527466484  MEMB      5               0.0000000000
      1434        57  POPC      HA            -10.3181019143      -18.8282254541       19.4533383240  MEMB      5               0.0000000000
      1435        57  POPC      HB             -9.6674016652      -20.1996209392       18.4848466009  MEMB      5               0.0000000000
      1436        57  POPC      C2            -11.1416160145      -18.9992789041       17.4580117249  MEMB      5               0.0000000000
      1437        57  POPC      HS            -11.9400958006      -19.6335955661       17.9106135981  MEMB      5               0.0000000000
      1438        57  POPC      O21           -10.8163237699      -19.4626329060       16.1187869887  MEMB      5               0.0000000000
      1439        57  POPC      C21           -11.9035465670      -19.8717128990       15.4245803675  MEMB      5               0.0000000000
      1440        57  POPC      O22           -13.0135585157      -20.0060345610       15.9148883012  MEMB      5               0.0000000000
      1441        57  POPC      C22           -11.5935731311      -19.9514089360       13.9070399414  MEMB      5               0.0000000000
      1442        57  POPC      H2R           -11.4611548436      -21.0235288056       13.6472432162  MEMB      5               0.0000000000
      1443        57  POPC      H2S           -10.6295705872      -19.4332332348       13.7606337226  MEMB      5               0.0000000000
      1444        57  POPC      C3            -11.6961191385      -17.5326759187       17.3814827245  MEMB      5               0.0000000000
      1445        57  POPC      HX            -12.1572837624      -17.3229438973       18.3709312253  MEMB      5               0.0000000000
      1446        57  POPC      HY            -12.5176389075      -17.4717611279       16.6363179180  MEMB      5               0.0000000000
      1447        57  POPC      O31           -10.6982435112      -16.5187360216       17.1634303951  MEMB      5               0.0000000000
      1448        57  POPC      C31           -10.1954904586      -16.4299335376       15.9494933674  MEMB      5               0.0000000000
      1449        57  POPC      O32           -10.6631785488      -16.9590286930       14.9569678137  MEMB      5               0.0000000000
      1450        57  POPC      C32            -8.9784626241      -15.5036783279       15.8723001331  MEMB      5               0.0000000000
      1451        57  POPC      H2X            -8.3492479309      -15.9333147555       15.0656374131  MEMB      5               0.0000000000
      1452        57  POPC      H2Y            -8.3777589431      -15.5519117608       16.7902787333  MEMB      5               0.0000000000
      1453        57  POPC      C23           -12.6813440562      -19.2852649039       12.9967818637  MEMB      5               0.0000000000
      1454        57  POPC      H3R           -13.3837900577      -18.7399738410       13.6729988908  MEMB      5               0.0000000000
      1455        57  POPC      H3S           -13.2886907010      -20.0703758529       12.4988804316  MEMB      5               0.0000000000
      1456        57  POPC      C24           -12.1767870397      -18.2283555820       11.9683212477  MEMB      5               0.0000000000
      1457        57  POPC      H4R           -11.1618563285      -17.8796236120       12.2598543408  MEMB      5               0.0000000000
      1458        57  POPC      H4S           -12.8516154999      -17.3490588428       12.0645651830  MEMB      5               0.0000000000
      1459        57  POPC      C25           -12.1792727105      -18.6339466668       10.4694380058  MEMB      5               0.0000000000
      1460        57  POPC      H5R           -13.0769394664      -19.2512341874       10.2466870328  MEMB      5               0.0000000000
      1461        57  POPC      H5S           -11.2828076891      -19.2623855772       10.2834578788  MEMB      5               0.0000000000
      1462        57  POPC      C26           -12.1513730918      -17.4647440487        9.4420553435  MEMB      5               0.0000000000
      1463        57  POPC      H6R           -11.3974389707      -16.7062971435        9.7511827540  MEMB      5               0.0000000000
      1464        57  POPC      H6S           -13.1415884650      -16.9679361276        9.4186267557  MEMB      5               0.0000000000
      1465        57  POPC      C27           -11.7800274290      -17.9749682046        8.0375414842  MEMB      5               0.0000000000
      1466        57  POPC      H7R           -12.1838489100      -19.0106761916        7.9421147799  MEMB      5               0.0000000000
      1467        57  POPC      H7S           -10.6749950772      -18.0490777002        7.9671813135  MEMB      5               0.0000000000
      1468        57  POPC      C28           -12.2769299859      -17.2384250301        6.7679434639  MEMB      5               0.0000000000
      1469        57  POPC      H8R           -13.3263511118      -17.5313597785        6.5796615189  MEMB      5               0.0000000000
      1470        57  POPC      H8S           -11.6714398562      -17.7575562079        5.9905546998  MEMB      5               0.0000000000
      1471        57  POPC      C29           -12.0772879522      -15.7587726292        6.5450977251  MEMB      5               0.0000000000
      1472        57  POPC      H91           -11.3789833099      -15.2804966153        7.2491808390  MEMB      5               0.0000000000
      1473        57  POPC      C210          -12.6603557634      -15.0072052747        5.5766223972  MEMB      5               0.0000000000
      1474        57  POPC      H101          -12.4189311304      -13.9317819546        5.5442985559  MEMB      5               0.0000000000
      1475        57  POPC      C211          -13.6424028841      -15.4473479386        4.5012553283  MEMB      5               0.0000000000
      1476        57  POPC      H11R          -14.1870466600      -14.5470485194        4.1350350859  MEMB      5               0.0000000000
      1477        57  POPC      H11S          -14.4276365853      -16.0853395409        4.9603779482  MEMB      5               0.0000000000
      1478        57  POPC      C212          -13.1466124250      -16.1934426066        3.2267055332  MEMB      5               0.0000000000
      1479        57  POPC      H12R          -12.5967185108      -15.4963102636        2.5583357127  MEMB      5               0.0000000000
      1480        57  POPC      H12S          -14.0482511623      -16.5504346234        2.6756381543  MEMB      5               0.0000000000
      1481        57  POPC      C213          -12.2609441902      -17.4088578811        3.5290527120  MEMB      5               0.0000000000
      1482        57  POPC      H13R          -12.7410686504      -17.9639094490        4.3509753759  MEMB      5               0.0000000000
      1483        57  POPC      H13S          -11.2796553851      -17.0208284253        3.8942458546  MEMB      5               0.0000000000
      1484        57  POPC      C214          -11.9920077559      -18.4021257491        2.3894874748  MEMB      5               0.0000000000
      1485        57  POPC      H14R          -10.9533950915      -18.7829787483        2.5216417814  MEMB      5               0.0000000000
      1486        57  POPC      H14S          -12.0130075665      -17.8708042800        1.4133230066  MEMB      5               0.0000000000
      1487        57  POPC      C215          -12.9010241931      -19.6521743667        2.3131110149  MEMB      5               0.0000000000
      1488        57  POPC      H15R          -12.3459925342      -20.3934070990        1.6926297963  MEMB      5               0.0000000000
      1489        57  POPC      H15S          -13.8205797638      -19.3842460282        1.7655745352  MEMB      5               0.0000000000
      1490        57  POPC      C216          -13.3507271446      -20.3468063699        3.6145904327  MEMB      5               0.0000000000
      1491        57  POPC      H16R          -13.8364016883      -19.6166504054        4.2976800625  MEMB      5               0.0000000000
      1492        57  POPC      H16S          -12.4535728041      -20.7539403300        4.1281688978  MEMB      5               0.0000000000
      1493        57  POPC      C217          -14.3936015967      -21.4642106097        3.3868615196  MEMB      5               0.0000000000
      1494        57  POPC      H17R          -15.4144740405      -21.0171746333        3.4156567394  MEMB      5               0.0000000000
      1495        57  POPC      H17S          -14.3259441738      -22.1892512997        4.2288759856  MEMB      5               0.0000000000
      1496        57  POPC      C218          -14.2442205873      -22.2186754099        2.0655857687  MEMB      5               0.0000000000
      1497        57  POPC      H18R          -13.1807973712      -22.4593410154        1.9036821396  MEMB      5               0.0000000000
      1498        57  POPC      H18S          -14.5741211021      -21.5876565067        1.2133832247  MEMB      5               0.0000000000
      1499        57  POPC      H18T          -14.8332245743      -23.1596967155        2.0550815014  MEMB      5               0.0000000000
      1500        57  POPC      C33            -9.3466012164      -14.0408216377       15.5258380558  MEMB      5               0.0000000000
      1501        57  POPC      H3X            -9.6173066634      -13.5040052423       16.4607372190  MEMB      5               0.0000000000
      1502        57  POPC      H3Y           -10.2524402717      -14.0217637551       14.8802820461  MEMB      5               0.0000000000
      1503        57  POPC      C34            -8.2156925356      -13.2842240567       14.8032886312  MEMB      5               0.0000000000
      1504        57  POPC      H4X            -7.3265600839      -13.2588122843       15.4735297942  MEMB      5               0.0000000000
      1505        57  POPC      H4Y            -8.5459242457      -12.2352769593       14.6422003852  MEMB      5               0.0000000000
      1506        57  POPC      C35            -7.7767188425      -13.8807550515       13.4470518942  MEMB      5               0.0000000000
      1507        57  POPC      H5X            -7.0052010438      -14.6634232771       13.6156347808  MEMB      5               0.0000000000
      1508        57  POPC      H5Y            -7.2997028151      -13.0601367029       12.8660727084  MEMB      5               0.0000000000
      1509        57  POPC      C36            -8.9135188082      -14.5014979718       12.6141180699  MEMB      5               0.0000000000
      1510        57  POPC      H6X            -9.8271997360      -13.8926109140       12.8073278965  MEMB      5               0.0000000000
      1511        57  POPC      H6Y            -9.1513375458      -15.5366739822       12.9375006758  MEMB      5               0.0000000000
      1512        57  POPC      C37            -8.6774629792      -14.4289155671       11.1029561284  MEMB      5               0.0000000000
      1513        57  POPC      H7X            -7.9630376173      -13.6056964715       10.8831274961  MEMB      5               0.0000000000
      1514        57  POPC      H7Y            -9.6519725635      -14.1619391786       10.6269947713  MEMB      5               0.0000000000
      1515        57  POPC      C38            -8.2134994191      -15.6847364732       10.3686862071  MEMB      5               0.0000000000
      1516        57  POPC      H8X            -8.9888849967      -16.4782114711       10.4576989954  MEMB      5               0.0000000000
      1517        57  POPC      H8Y            -7.2653251753      -16.0733114921       10.7943993340  MEMB      5               0.0000000000
      1518        57  POPC      C39            -8.0329485056      -15.2778411908        8.8996134960  MEMB      5               0.0000000000
      1519        57  POPC      H9X            -7.1692917771      -14.5787997007        8.8277622813  MEMB      5               0.0000000000
      1520        57  POPC      H9Y            -8.9403130044      -14.7082652689        8.5911105813  MEMB      5               0.0000000000
      1521        57  POPC      C310           -7.8383124853      -16.4257051940        7.9158240424  MEMB      5               0.0000000000
      1522        57  POPC      H10X           -8.7631271001      -17.0383580837        7.8618278678  MEMB      5               0.0000000000
      1523        57  POPC      H10Y           -7.0169795505      -17.0830694422        8.2804715755  MEMB      5               0.0000000000
      1524        57  POPC      C311           -7.4744414437      -15.9254315013        6.5101153558  MEMB      5               0.0000000000
      1525        57  POPC      H11X           -7.2764031654      -16.8271856743        5.8888907614  MEMB      5               0.0000000000
      1526        57  POPC      H11Y           -6.5299059425      -15.3396648842        6.5714118266  MEMB      5               0.0000000000
      1527        57  POPC      C312           -8.5359733013      -15.0572981297        5.8060508183  MEMB      5               0.0000000000
      1528        57  POPC      H12X           -8.9026095257      -14.2556038471        6.4833952931  MEMB      5               0.0000000000
      1529        57  POPC      H12Y           -9.4051377576      -15.6994746898        5.5403014992  MEMB      5               0.0000000000
      1530        57  POPC      C313           -7.9940111510      -14.3816196385        4.5317379561  MEMB      5               0.0000000000
      1531        57  POPC      H13X           -7.1997861742      -13.6579081343        4.8238214051  MEMB      5               0.0000000000
      1532        57  POPC      H13Y           -8.8109808148      -13.8106113477        4.0378185159  MEMB      5               0.0000000000
      1533        57  POPC      C314           -7.4148837077      -15.3894544788        3.5335468374  MEMB      5               0.0000000000
      1534        57  POPC      H14X           -8.2473874332      -16.0062906125        3.1287852065  MEMB      5               0.0000000000
      1535        57  POPC      H14Y           -6.7038237167      -16.0650595180        4.0575312535  MEMB      5               0.0000000000
      1536        57  POPC      C315           -6.6178219791      -14.7770104329        2.3824246213  MEMB      5               0.0000000000
      1537        57  POPC      H15X           -5.8461584950      -14.0936114575        2.8058005594  MEMB      5               0.0000000000
      1538        57  POPC      H15Y           -7.2913082858      -14.1719370337        1.7358894584  MEMB      5               0.0000000000
      1539        57  POPC      C316           -5.9287522961      -15.8643255077        1.5550099022  MEMB      5               0.0000000000
      1540        57  POPC      H16X           -5.2951634013      -15.4150967491        0.7611936075  MEMB      5               0.0000000000
      1541        57  POPC      H16Y           -6.6882919318      -16.5182623124        1.0774407011  MEMB      5               0.0000000000
      1542        57  POPC      H16Z           -5.2900913940      -16.5021379649        2.2047103964  MEMB      5               0.0000000000
      1543        58  POPC      N              -1.0891398365      -22.4253153884       21.1310401009  MEMB      6               0.0000000000
      1544        58  POPC      C12            -0.6859064636      -21.4124205059       20.0694630880  MEMB      6               0.0000000000
      1545        58  POPC      H12A           -0.2019182676      -21.9229313963       19.2381376019  MEMB      6               0.0000000000
      1546        58  POPC      H12B            0.0226142612      -20.7172087694       20.5013895647  MEMB      6               0.0000000000
      1547        58  POPC      C13            -2.2960695282      -23.2371453552       20.7648364933  MEMB      6               0.0000000000
      1548        58  POPC      H13A           -3.1411525082      -22.6051288875       20.4900531867  MEMB      6               0.0000000000
      1549        58  POPC      H13B           -2.0728916288      -23.8668891548       19.9123978844  MEMB      6               0.0000000000
      1550        58  POPC      H13C           -2.6047887237      -23.9013878465       21.5631756109  MEMB      6               0.0000000000
      1551        58  POPC      C14             0.0147289124      -23.4109893038       21.3022860702  MEMB      6               0.0000000000
      1552        58  POPC      H14A            0.1491230822      -24.0358508693       20.4210564974  MEMB      6               0.0000000000
      1553        58  POPC      H14B            0.9452027402      -22.9036610879       21.5132095548  MEMB      6               0.0000000000
      1554        58  POPC      H14C           -0.2075757648      -24.0912829418       22.1165027827  MEMB      6               0.0000000000
      1555        58  POPC      C15            -1.3661756969      -21.7075351185       22.4112985251  MEMB      6               0.0000000000
      1556        58  POPC      H15A           -2.1685881760      -20.9844958861       22.2908663404  MEMB      6               0.0000000000
      1557        58  POPC      H15B           -0.4883120017      -21.1853302457       22.7797813384  MEMB      6               0.0000000000
      1558        58  POPC      H15C           -1.6848976534      -22.3919489359       23.1872904879  MEMB      6               0.0000000000
      1559        58  POPC      C11            -1.7892343999      -20.6026240763       19.3899302121  MEMB      6               0.0000000000
      1560        58  POPC      H11A           -1.3797331471      -19.6245337694       19.0477644735  MEMB      6               0.0000000000
      1561        58  POPC      H11B           -2.6184917600      -20.3790891862       20.1056888384  MEMB      6               0.0000000000
      1562        58  POPC      P              -3.6928251530      -21.5675988643       17.8950877832  MEMB      6               0.0000000000
      1563        58  POPC      O13            -4.1478902040      -20.4019759683       17.1227854961  MEMB      6               0.0000000000
      1564        58  POPC      O14            -4.3725797557      -21.8675821497       19.1869988383  MEMB      6               0.0000000000
      1565        58  POPC      O12            -2.1625688500      -21.3681933012       18.2501406675  MEMB      6               0.0000000000
      1566        58  POPC      O11            -3.6889060005      -22.8588747326       16.9949115502  MEMB      6               0.0000000000
      1567        58  POPC      C1             -2.4924761542      -23.2741810030       16.3408725156  MEMB      6               0.0000000000
      1568        58  POPC      HA             -2.6159705151      -24.3278799377       16.0444910980  MEMB      6               0.0000000000
      1569        58  POPC      HB             -1.6218892763      -23.2620861936       17.0355182078  MEMB      6               0.0000000000
      1570        58  POPC      C2             -2.1190644286      -22.4692699000       15.0566396226  MEMB      6               0.0000000000
      1571        58  POPC      HS             -2.1795715815      -21.3823614286       15.2969371940  MEMB      6               0.0000000000
      1572        58  POPC      O21            -2.9985548343      -22.8140914349       13.9717032364  MEMB      6               0.0000000000
      1573        58  POPC      C21            -3.0301531814      -21.9361526759       12.9780295393  MEMB      6               0.0000000000
      1574        58  POPC      O22            -2.4811952269      -20.8443366051       12.9463574240  MEMB      6               0.0000000000
      1575        58  POPC      C22            -3.8682614938      -22.5237018547       11.8344761649  MEMB      6               0.0000000000
      1576        58  POPC      H2R            -4.5713157877      -23.2607427687       12.2847373002  MEMB      6               0.0000000000
      1577        58  POPC      H2S            -3.1921995590      -23.0612349125       11.1433201268  MEMB      6               0.0000000000
      1578        58  POPC      C3             -0.6578951735      -22.8688114588       14.7011611744  MEMB      6               0.0000000000
      1579        58  POPC      HX             -0.6289673026      -23.9811328700       14.7247098705  MEMB      6               0.0000000000
      1580        58  POPC      HY             -0.0194678455      -22.5028526075       15.5411490553  MEMB      6               0.0000000000
      1581        58  POPC      O31            -0.2341814946      -22.4529253548       13.3837113662  MEMB      6               0.0000000000
      1582        58  POPC      C31             0.8810689078      -21.7504346423       13.3303567547  MEMB      6               0.0000000000
      1583        58  POPC      O32             1.5530715967      -21.4018498538       14.2882392002  MEMB      6               0.0000000000
      1584        58  POPC      C32             1.2501026525      -21.4401427772       11.8662315490  MEMB      6               0.0000000000
      1585        58  POPC      H2X             1.7567834986      -22.3351868133       11.4543009514  MEMB      6               0.0000000000
      1586        58  POPC      H2Y             1.9810484926      -20.6068424350       11.9037798411  MEMB      6               0.0000000000
      1587        58  POPC      C23            -4.7010390864      -21.4497507170       11.0949114345  MEMB      6               0.0000000000
      1588        58  POPC      H3R            -5.1322561406      -20.7396359931       11.8353863717  MEMB      6               0.0000000000
      1589        58  POPC      H3S            -5.5505636743      -21.9688383806       10.5957127327  MEMB      6               0.0000000000
      1590        58  POPC      C24            -3.9239329369      -20.6817235152       10.0114849087  MEMB      6               0.0000000000
      1591        58  POPC      H4R            -3.4629994802      -21.4210701556        9.3174594492  MEMB      6               0.0000000000
      1592        58  POPC      H4S            -3.1030842641      -20.1047992009       10.4863432097  MEMB      6               0.0000000000
      1593        58  POPC      C25            -4.8365624308      -19.7372231112        9.2081472212  MEMB      6               0.0000000000
      1594        58  POPC      H5R            -5.3929482491      -19.0758626659        9.9094952973  MEMB      6               0.0000000000
      1595        58  POPC      H5S            -5.5873674787      -20.3721214056        8.6800653236  MEMB      6               0.0000000000
      1596        58  POPC      C26            -4.1371242884      -18.8590754335        8.1524256174  MEMB      6               0.0000000000
      1597        58  POPC      H6R            -3.5627437009      -18.0469824338        8.6413346099  MEMB      6               0.0000000000
      1598        58  POPC      H6S            -4.9393318956      -18.3842652690        7.5379397651  MEMB      6               0.0000000000
      1599        58  POPC      C27            -3.2179751239      -19.6568720279        7.2173811662  MEMB      6               0.0000000000
      1600        58  POPC      H7R            -3.7399943951      -20.6142838993        6.9865872711  MEMB      6               0.0000000000
      1601        58  POPC      H7S            -2.2742657626      -19.9274537250        7.7361703791  MEMB      6               0.0000000000
      1602        58  POPC      C28            -2.9214386587      -18.9790490785        5.8635519570  MEMB      6               0.0000000000
      1603        58  POPC      H8R            -3.8866142184      -18.6564046359        5.4114191086  MEMB      6               0.0000000000
      1604        58  POPC      H8S            -2.5335229078      -19.7834724486        5.1980840685  MEMB      6               0.0000000000
      1605        58  POPC      C29            -1.9345742921      -17.8377726115        5.8567691269  MEMB      6               0.0000000000
      1606        58  POPC      H91            -2.3798218686      -16.8403616970        5.7103239694  MEMB      6               0.0000000000
      1607        58  POPC      C210           -0.5929525648      -17.9558099648        5.9517093993  MEMB      6               0.0000000000
      1608        58  POPC      H101            0.0308349569      -17.0515165524        5.8729003114  MEMB      6               0.0000000000
      1609        58  POPC      C211            0.1803002965      -19.2480338803        6.0900719873  MEMB      6               0.0000000000
      1610        58  POPC      H11R           -0.5058964852      -20.1093138415        6.2638198084  MEMB      6               0.0000000000
      1611        58  POPC      H11S            0.8320372106      -19.1830093553        6.9887549466  MEMB      6               0.0000000000
      1612        58  POPC      C212            1.0746207395      -19.6470314852        4.8928176844  MEMB      6               0.0000000000
      1613        58  POPC      H12R            1.5787915060      -20.6041270994        5.1647521919  MEMB      6               0.0000000000
      1614        58  POPC      H12S            1.8630403680      -18.8904700042        4.6942582671  MEMB      6               0.0000000000
      1615        58  POPC      C213            0.2870872552      -19.8571635718        3.5998356296  MEMB      6               0.0000000000
      1616        58  POPC      H13R            0.1386726590      -18.8683371211        3.1111547413  MEMB      6               0.0000000000
      1617        58  POPC      H13S           -0.7128059588      -20.2579284066        3.8764006909  MEMB      6               0.0000000000
      1618        58  POPC      C214            0.9244204787      -20.8462740013        2.6156838670  MEMB      6               0.0000000000
      1619        58  POPC      H14R            2.0312137766      -20.7564420019        2.6113090113  MEMB      6               0.0000000000
      1620        58  POPC      H14S            0.5455495712      -20.5868207807        1.6011003641  MEMB      6               0.0000000000
      1621        58  POPC      C215            0.4733312948      -22.2787109686        2.9219386476  MEMB      6               0.0000000000
      1622        58  POPC      H15R           -0.6375677850      -22.2903299907        2.8307675681  MEMB      6               0.0000000000
      1623        58  POPC      H15S            0.7185225587      -22.5263171853        3.9776096828  MEMB      6               0.0000000000
      1624        58  POPC      C216            1.0295799753      -23.3610447158        1.9883467247  MEMB      6               0.0000000000
      1625        58  POPC      H16R            2.0726490728      -23.6079850786        2.2839204916  MEMB      6               0.0000000000
      1626        58  POPC      H16S            1.0500738474      -22.9729380234        0.9471136416  MEMB      6               0.0000000000
      1627        58  POPC      C217            0.1614804335      -24.6289937479        1.9858043267  MEMB      6               0.0000000000
      1628        58  POPC      H17R            0.6579186284      -25.4075395674        1.3635841123  MEMB      6               0.0000000000
      1629        58  POPC      H17S           -0.8086607548      -24.3776129799        1.4978353449  MEMB      6               0.0000000000
      1630        58  POPC      C218           -0.1513536652      -25.1896004434        3.3733124954  MEMB      6               0.0000000000
      1631        58  POPC      H18R           -0.9474539443      -25.9611804544        3.3059145777  MEMB      6               0.0000000000
      1632        58  POPC      H18S           -0.5173836977      -24.3911683460        4.0491701290  MEMB      6               0.0000000000
      1633        58  POPC      H18T            0.7499821288      -25.6472348858        3.8314753602  MEMB      6               0.0000000000
      1634        58  POPC      C33             0.0767997693      -21.0420811634       10.9351962572  MEMB      6               0.0000000000
      1635        58  POPC      H3X            -0.4524681061      -20.1670708865       11.3759935231  MEMB      6               0.0000000000
      1636        58  POPC      H3Y            -0.6627822620      -21.8706988965       10.8720223914  MEMB      6               0.0000000000
      1637        58  POPC      C34             0.5380546886      -20.6570927873        9.5163828601  MEMB      6               0.0000000000
      1638        58  POPC      H4X             1.2864274193      -19.8412007928        9.5868663696  MEMB      6               0.0000000000
      1639        58  POPC      H4Y            -0.3387436123      -20.2514036446        8.9621442165  MEMB      6               0.0000000000
      1640        58  POPC      C35             1.1325445012      -21.8000987091        8.6697204780  MEMB      6               0.0000000000
      1641        58  POPC      H5X             2.0721289950      -22.1835517693        9.1241020084  MEMB      6               0.0000000000
      1642        58  POPC      H5Y             1.3917049591      -21.3783230974        7.6698199839  MEMB      6               0.0000000000
      1643        58  POPC      C36             0.1495928719      -22.9573495701        8.4575759156  MEMB      6               0.0000000000
      1644        58  POPC      H6X            -0.8677428357      -22.5173394539        8.3329881943  MEMB      6               0.0000000000
      1645        58  POPC      H6Y             0.1374396884      -23.6091367759        9.3599642954  MEMB      6               0.0000000000
      1646        58  POPC      C37             0.4490412893      -23.7963216085        7.2059193188  MEMB      6               0.0000000000
      1647        58  POPC      H7X             1.5104613313      -24.1283386847        7.2230421938  MEMB      6               0.0000000000
      1648        58  POPC      H7Y             0.3201806942      -23.1506187487        6.3073852712  MEMB      6               0.0000000000
      1649        58  POPC      C38            -0.4540714557      -25.0371160255        7.0815977345  MEMB      6               0.0000000000
      1650        58  POPC      H8X            -0.1832728268      -25.7520208574        7.8921737069  MEMB      6               0.0000000000
      1651        58  POPC      H8Y            -0.2427829088      -25.5437369234        6.1147613183  MEMB      6               0.0000000000
      1652        58  POPC      C39            -1.9616159552      -24.7431123845        7.1726289195  MEMB      6               0.0000000000
      1653        58  POPC      H9X            -2.1928941194      -24.2142801282        8.1228070632  MEMB      6               0.0000000000
      1654        58  POPC      H9Y            -2.5021335802      -25.7167388267        7.2018152380  MEMB      6               0.0000000000
      1655        58  POPC      C310           -2.5025484555      -23.9307952997        5.9870500278  MEMB      6               0.0000000000
      1656        58  POPC      H10X           -2.3457393132      -24.5363763258        5.0674557917  MEMB      6               0.0000000000
      1657        58  POPC      H10Y           -1.9488857001      -22.9741779527        5.8647473083  MEMB      6               0.0000000000
      1658        58  POPC      C311           -4.0015963579      -23.6395716061        6.1019663846  MEMB      6               0.0000000000
      1659        58  POPC      H11X           -4.1893608093      -22.7628330659        6.7567976112  MEMB      6               0.0000000000
      1660        58  POPC      H11Y           -4.4701506595      -24.5182956524        6.6009750480  MEMB      6               0.0000000000
      1661        58  POPC      C312           -4.6804387875      -23.4647811710        4.7363339464  MEMB      6               0.0000000000
      1662        58  POPC      H12X           -5.7633638027      -23.6933389352        4.8864323966  MEMB      6               0.0000000000
      1663        58  POPC      H12Y           -4.2925855433      -24.2033943032        4.0034175186  MEMB      6               0.0000000000
      1664        58  POPC      C313           -4.6104481153      -22.0478974592        4.1491951825  MEMB      6               0.0000000000
      1665        58  POPC      H13X           -4.6601068521      -21.2871716171        4.9561004427  MEMB      6               0.0000000000
      1666        58  POPC      H13Y           -5.5378471468      -21.9311910673        3.5479135992  MEMB      6               0.0000000000
      1667        58  POPC      C314           -3.4237888480      -21.7473008900        3.2121871772  MEMB      6               0.0000000000
      1668        58  POPC      H14X           -3.1801071098      -22.6438409264        2.6007724790  MEMB      6               0.0000000000
      1669        58  POPC      H14Y           -2.5320803564      -21.5142574260        3.8294413449  MEMB      6               0.0000000000
      1670        58  POPC      C315           -3.7645413034      -20.5730850019        2.2710234548  MEMB      6               0.0000000000
      1671        58  POPC      H15X           -4.5567067709      -19.9742462026        2.7691550218  MEMB      6               0.0000000000
      1672        58  POPC      H15Y           -4.1946778710      -20.9947876539        1.3383314152  MEMB      6               0.0000000000
      1673        58  POPC      C316           -2.6620581598      -19.5742859303        1.9139379861  MEMB      6               0.0000000000
      1674        58  POPC      H16X           -1.8966269956      -20.0177635037        1.2464940982  MEMB      6               0.0000000000
      1675        58  POPC      H16Y           -2.1718329271      -19.1993055983        2.8333828966  MEMB      6               0.0000000000
      1676        58  POPC      H16Z           -3.1057193295      -18.6963756805        1.3949072254  MEMB      6               0.0000000000
      1677        59  POPC      N              -5.5711412135        3.3904361541       18.5727741185  MEMB      7               0.0000000000
      1678        59  POPC      C12            -6.1492952006        2.9227573696       19.8920495485  MEMB      7               0.0000000000
      1679        59  POPC      H12A           -6.4664338822        3.7963203956       20.4632729657  MEMB      7               0.0000000000
      1680        59  POPC      H12B           -5.3450222954        2.4950402470       20.4956236912  MEMB      7               0.0000000000
      1681        59  POPC      C13            -4.9614742976        2.2252149761       17.8751137711  MEMB      7               0.0000000000
      1682        59  POPC      H13A           -4.5175675536        2.5071633501       16.9351835512  MEMB      7               0.0000000000
      1683        59  POPC      H13B           -4.2020790591        1.7912647360       18.5196689604  MEMB      7               0.0000000000
      1684        59  POPC      H13C           -5.7219377698        1.4616463768       17.7195168310  MEMB      7               0.0000000000
      1685        59  POPC      C14            -6.6484803674        4.0216304583       17.7580114202  MEMB      7               0.0000000000
      1686        59  POPC      H14A           -6.9389691571        4.9623725509       18.2206073698  MEMB      7               0.0000000000
      1687        59  POPC      H14B           -6.3252173004        4.1868270647       16.7442855911  MEMB      7               0.0000000000
      1688        59  POPC      H14C           -7.5307460938        3.3875219277       17.7468650660  MEMB      7               0.0000000000
      1689        59  POPC      C15            -4.5063236560        4.4020495332       18.8797345943  MEMB      7               0.0000000000
      1690        59  POPC      H15A           -4.0119512990        4.7760085500       17.9944947973  MEMB      7               0.0000000000
      1691        59  POPC      H15B           -3.7509073366        3.9819939651       19.5345141803  MEMB      7               0.0000000000
      1692        59  POPC      H15C           -4.9277066669        5.2494180081       19.4174138194  MEMB      7               0.0000000000
      1693        59  POPC      C11            -7.3100642113        1.9100372881       19.8568570506  MEMB      7               0.0000000000
      1694        59  POPC      H11A           -8.1080659110        2.2667001053       19.1691208162  MEMB      7               0.0000000000
      1695        59  POPC      H11B           -7.7495701296        1.9231793889       20.8871714452  MEMB      7               0.0000000000
      1696        59  POPC      P              -6.9741593074       -0.6068883403       20.4715343080  MEMB      7               0.0000000000
      1697        59  POPC      O13            -6.5074152119       -0.1599597666       21.8023473469  MEMB      7               0.0000000000
      1698        59  POPC      O14            -6.2759466794       -1.8182342806       19.9559587131  MEMB      7               0.0000000000
      1699        59  POPC      O12            -6.8555877942        0.6121886403       19.4475516144  MEMB      7               0.0000000000
      1700        59  POPC      O11            -8.5388481600       -0.9057746847       20.5524176393  MEMB      7               0.0000000000
      1701        59  POPC      C1             -9.5286026495       -0.5611751835       19.5699494064  MEMB      7               0.0000000000
      1702        59  POPC      HA             -9.5456277522        0.5277259449       19.3377841500  MEMB      7               0.0000000000
      1703        59  POPC      HB            -10.5276220649       -0.8098805559       19.9885233539  MEMB      7               0.0000000000
      1704        59  POPC      C2             -9.3473937086       -1.3532512900       18.2465366690  MEMB      7               0.0000000000
      1705        59  POPC      HS             -9.1909890510       -2.4111362363       18.5763897087  MEMB      7               0.0000000000
      1706        59  POPC      O21            -8.1929745531       -0.8012883252       17.5879484981  MEMB      7               0.0000000000
      1707        59  POPC      C21            -7.5260963743       -1.7132961646       16.9175818059  MEMB      7               0.0000000000
      1708        59  POPC      O22            -7.9498281273       -2.8372460620       16.6790764176  MEMB      7               0.0000000000
      1709        59  POPC      C22            -6.1266877122       -1.1405297404       16.5761046595  MEMB      7               0.0000000000
      1710        59  POPC      H2R            -5.4126667560       -1.9640542368       16.7345272902  MEMB      7               0.0000000000
      1711        59  POPC      H2S            -5.8774307854       -0.3728709026       17.3303947969  MEMB      7               0.0000000000
      1712        59  POPC      C3            -10.5622662072       -1.3278727245       17.2665777301  MEMB      7               0.0000000000
      1713        59  POPC      HX            -11.4901318838       -1.5083458358       17.8481754434  MEMB      7               0.0000000000
      1714        59  POPC      HY            -10.4649717265       -2.1802410239       16.5527570973  MEMB      7               0.0000000000
      1715        59  POPC      O31           -10.6467733623       -0.0489087106       16.6018415475  MEMB      7               0.0000000000
      1716        59  POPC      C31            -9.9920218866        0.0295558349       15.4344865532  MEMB      7               0.0000000000
      1717        59  POPC      O32            -9.7735653621       -0.8869830152       14.6707491441  MEMB      7               0.0000000000
      1718        59  POPC      C32            -9.3426106207        1.4157413973       15.3825558564  MEMB      7               0.0000000000
      1719        59  POPC      H2X            -8.7440489184        1.4975671875       16.3183251356  MEMB      7               0.0000000000
      1720        59  POPC      H2Y           -10.1394054924        2.1854878202       15.4108016129  MEMB      7               0.0000000000
      1721        59  POPC      C23            -5.9467327752       -0.5685917847       15.1390763021  MEMB      7               0.0000000000
      1722        59  POPC      H3R            -6.0653579413        0.5365253957       15.1639926661  MEMB      7               0.0000000000
      1723        59  POPC      H3S            -6.7481482865       -0.9803360696       14.4865074157  MEMB      7               0.0000000000
      1724        59  POPC      C24            -4.5916098307       -0.9104152711       14.4799777161  MEMB      7               0.0000000000
      1725        59  POPC      H4R            -4.1605176153       -1.7956802493       14.9994707668  MEMB      7               0.0000000000
      1726        59  POPC      H4S            -3.8930622354       -0.0631605252       14.6476869090  MEMB      7               0.0000000000
      1727        59  POPC      C25            -4.6370127697       -1.2553211120       12.9689422454  MEMB      7               0.0000000000
      1728        59  POPC      H5R            -5.1925780338       -2.2037720160       12.8082274065  MEMB      7               0.0000000000
      1729        59  POPC      H5S            -3.5901700419       -1.4275479711       12.6305951259  MEMB      7               0.0000000000
      1730        59  POPC      C26            -5.2967406214       -0.1936879518       12.0738659803  MEMB      7               0.0000000000
      1731        59  POPC      H6R            -5.0406763019        0.8038768136       12.4986663853  MEMB      7               0.0000000000
      1732        59  POPC      H6S            -6.4009157320       -0.3083673392       12.1206706228  MEMB      7               0.0000000000
      1733        59  POPC      C27            -4.8120766574       -0.1923241898       10.6020281961  MEMB      7               0.0000000000
      1734        59  POPC      H7R            -3.7207522373       -0.4126152888       10.6015417942  MEMB      7               0.0000000000
      1735        59  POPC      H7S            -4.9241773407        0.8405469766       10.2020974029  MEMB      7               0.0000000000
      1736        59  POPC      C28            -5.5128776496       -1.1703573481        9.6178214922  MEMB      7               0.0000000000
      1737        59  POPC      H8R            -5.4542896818       -2.1898845336       10.0408701567  MEMB      7               0.0000000000
      1738        59  POPC      H8S            -4.9019819231       -1.1712145807        8.6860762184  MEMB      7               0.0000000000
      1739        59  POPC      C29            -6.9604234030       -0.8877300700        9.2927041014  MEMB      7               0.0000000000
      1740        59  POPC      H91            -7.5374714771       -0.4857220312       10.1386561794  MEMB      7               0.0000000000
      1741        59  POPC      C210           -7.6004878522       -1.0935523672        8.1188774169  MEMB      7               0.0000000000
      1742        59  POPC      H101           -8.6677290171       -0.8269144341        8.0593168430  MEMB      7               0.0000000000
      1743        59  POPC      C211           -7.0351640549       -1.6595622181        6.8318394826  MEMB      7               0.0000000000
      1744        59  POPC      H11R           -5.9329589112       -1.7924174651        6.8901195658  MEMB      7               0.0000000000
      1745        59  POPC      H11S           -7.2255724405       -0.9533671367        5.9925452350  MEMB      7               0.0000000000
      1746        59  POPC      C212           -7.6631733898       -3.0254644189        6.4761620886  MEMB      7               0.0000000000
      1747        59  POPC      H12R           -8.7588352034       -2.9093337825        6.3213151109  MEMB      7               0.0000000000
      1748        59  POPC      H12S           -7.5210686085       -3.7160126807        7.3408049546  MEMB      7               0.0000000000
      1749        59  POPC      C213           -7.0535815112       -3.7106483642        5.2352594532  MEMB      7               0.0000000000
      1750        59  POPC      H13R           -7.4845180340       -4.7371593599        5.1738752347  MEMB      7               0.0000000000
      1751        59  POPC      H13S           -5.9568169381       -3.8178951918        5.3781271929  MEMB      7               0.0000000000
      1752        59  POPC      C214           -7.3370639478       -2.9993963893        3.8981537989  MEMB      7               0.0000000000
      1753        59  POPC      H14R           -6.7363598707       -2.0665980560        3.8342302782  MEMB      7               0.0000000000
      1754        59  POPC      H14S           -8.4129427412       -2.7091383602        3.8904916065  MEMB      7               0.0000000000
      1755        59  POPC      C215           -7.0772316317       -3.8786278878        2.6554027042  MEMB      7               0.0000000000
      1756        59  POPC      H15R           -7.4230100357       -3.3494006546        1.7431731595  MEMB      7               0.0000000000
      1757        59  POPC      H15S           -7.7010360667       -4.7943666587        2.7572534702  MEMB      7               0.0000000000
      1758        59  POPC      C216           -5.6213127856       -4.3389440137        2.4593642451  MEMB      7               0.0000000000
      1759        59  POPC      H16R           -5.6250284878       -5.2881025029        1.8750600898  MEMB      7               0.0000000000
      1760        59  POPC      H16S           -5.1732437960       -4.5756433540        3.4483483861  MEMB      7               0.0000000000
      1761        59  POPC      C217           -4.7144194952       -3.3449273019        1.7139330598  MEMB      7               0.0000000000
      1762        59  POPC      H17R           -3.6665363610       -3.7143086048        1.8122386705  MEMB      7               0.0000000000
      1763        59  POPC      H17S           -4.7621911692       -2.3540354476        2.2162010503  MEMB      7               0.0000000000
      1764        59  POPC      C218           -5.0158026619       -3.1884418253        0.2171738843  MEMB      7               0.0000000000
      1765        59  POPC      H18R           -4.1696338462       -2.6781485861       -0.2935929869  MEMB      7               0.0000000000
      1766        59  POPC      H18S           -5.9360597413       -2.5908253712        0.0598187695  MEMB      7               0.0000000000
      1767        59  POPC      H18T           -5.1524143619       -4.1849215441       -0.2557436407  MEMB      7               0.0000000000
      1768        59  POPC      C33            -8.3844080344        1.6419969117       14.1882322307  MEMB      7               0.0000000000
      1769        59  POPC      H3X            -7.8606336396        0.7091130188       13.8963384250  MEMB      7               0.0000000000
      1770        59  POPC      H3Y            -7.6075671385        2.3645223359       14.5332858760  MEMB      7               0.0000000000
      1771        59  POPC      C34            -9.0710359453        2.2243642254       12.9532109525  MEMB      7               0.0000000000
      1772        59  POPC      H4X            -9.9202355509        2.8589263302       13.2957067676  MEMB      7               0.0000000000
      1773        59  POPC      H4Y            -9.5036710053        1.3983343863       12.3446951460  MEMB      7               0.0000000000
      1774        59  POPC      C35            -8.1380853965        3.0945957050       12.0889057517  MEMB      7               0.0000000000
      1775        59  POPC      H5X            -7.2621272880        3.4527208463       12.6700294077  MEMB      7               0.0000000000
      1776        59  POPC      H5Y            -8.7175839732        3.9938010217       11.8006460783  MEMB      7               0.0000000000
      1777        59  POPC      C36            -7.6760371018        2.3847903375       10.8075163734  MEMB      7               0.0000000000
      1778        59  POPC      H6X            -8.5813952077        1.9975253234       10.2875268464  MEMB      7               0.0000000000
      1779        59  POPC      H6Y            -7.0563729379        1.5096814297       11.0834069358  MEMB      7               0.0000000000
      1780        59  POPC      C37            -6.8871317217        3.2588826391        9.8141149352  MEMB      7               0.0000000000
      1781        59  POPC      H7X            -5.8960324113        3.5262433445       10.2437825410  MEMB      7               0.0000000000
      1782        59  POPC      H7Y            -7.4458710329        4.2031826154        9.6431063065  MEMB      7               0.0000000000
      1783        59  POPC      C38            -6.6852816381        2.5375162601        8.4658908786  MEMB      7               0.0000000000
      1784        59  POPC      H8X            -7.4615526930        1.7517367644        8.3731002692  MEMB      7               0.0000000000
      1785        59  POPC      H8Y            -5.7046367047        2.0133221983        8.4800150095  MEMB      7               0.0000000000
      1786        59  POPC      C39            -6.7622626399        3.4298267974        7.2131439024  MEMB      7               0.0000000000
      1787        59  POPC      H9X            -6.2202626362        2.9313660747        6.3790608779  MEMB      7               0.0000000000
      1788        59  POPC      H9Y            -6.2434895036        4.3908143075        7.4226245396  MEMB      7               0.0000000000
      1789        59  POPC      C310           -8.1928672863        3.7322262431        6.7344136195  MEMB      7               0.0000000000
      1790        59  POPC      H10X           -8.1686535823        4.4966566467        5.9323555451  MEMB      7               0.0000000000
      1791        59  POPC      H10Y           -8.7159800846        4.2203148961        7.5734109555  MEMB      7               0.0000000000
      1792        59  POPC      C311           -9.0021058323        2.5215305030        6.2269075537  MEMB      7               0.0000000000
      1793        59  POPC      H11X          -10.0745187574        2.8221813510        6.1951973164  MEMB      7               0.0000000000
      1794        59  POPC      H11Y           -8.9348091572        1.6612172599        6.9231215541  MEMB      7               0.0000000000
      1795        59  POPC      C312           -8.6095516293        2.0837783045        4.8058447771  MEMB      7               0.0000000000
      1796        59  POPC      H12X           -7.5925861533        1.6327470332        4.8105619145  MEMB      7               0.0000000000
      1797        59  POPC      H12Y           -8.5681265253        2.9998495803        4.1771634992  MEMB      7               0.0000000000
      1798        59  POPC      C313           -9.6214447689        1.1019914405        4.1945391332  MEMB      7               0.0000000000
      1799        59  POPC      H13X          -10.6482037781        1.4852755239        4.3892748659  MEMB      7               0.0000000000
      1800        59  POPC      H13Y           -9.5279240956        0.1200102316        4.7097462840  MEMB      7               0.0000000000
      1801        59  POPC      C314           -9.4773356938        0.9057370796        2.6749893044  MEMB      7               0.0000000000
      1802        59  POPC      H14X          -10.1674895490        0.0881690462        2.3661491188  MEMB      7               0.0000000000
      1803        59  POPC      H14Y           -8.4375575446        0.5880944990        2.4404466347  MEMB      7               0.0000000000
      1804        59  POPC      C315           -9.8407223699        2.1692156707        1.8775991406  MEMB      7               0.0000000000
      1805        59  POPC      H15X           -9.0881497369        2.9633049197        2.0841970812  MEMB      7               0.0000000000
      1806        59  POPC      H15Y          -10.8254602629        2.5432725561        2.2429263521  MEMB      7               0.0000000000
      1807        59  POPC      C316           -9.9223420388        1.9655038141        0.3636214587  MEMB      7               0.0000000000
      1808        59  POPC      H16X          -10.6776311313        1.1883527967        0.1200553403  MEMB      7               0.0000000000
      1809        59  POPC      H16Y           -8.9297445525        1.6730575301       -0.0318505282  MEMB      7               0.0000000000
      1810        59  POPC      H16Z          -10.2210031561        2.9155373991       -0.1319539606  MEMB      7               0.0000000000
      1811        60  POPC      N               8.6419881032       -3.0391408301       21.2183128382  MEMB      8               0.0000000000
      1812        60  POPC      C12             7.4282337755       -2.1265785353       21.0976871344  MEMB      8               0.0000000000
      1813        60  POPC      H12A            7.4398206467       -1.4348235251       21.9295032377  MEMB      8               0.0000000000
      1814        60  POPC      H12B            6.5342517400       -2.7441178343       21.1615421245  MEMB      8               0.0000000000
      1815        60  POPC      C13             8.7546726072       -3.5346622311       22.6109913981  MEMB      8               0.0000000000
      1816        60  POPC      H13A            9.5734200283       -4.2347482974       22.6831793662  MEMB      8               0.0000000000
      1817        60  POPC      H13B            8.9453680482       -2.7185627049       23.3012581484  MEMB      8               0.0000000000
      1818        60  POPC      H13C            7.8278617886       -4.0248563799       22.9008105887  MEMB      8               0.0000000000
      1819        60  POPC      C14             8.4689647587       -4.1866842935       20.2594287679  MEMB      8               0.0000000000
      1820        60  POPC      H14A            7.5408492924       -4.7198338349       20.4449575198  MEMB      8               0.0000000000
      1821        60  POPC      H14B            8.3461005802       -3.7819129006       19.2481626430  MEMB      8               0.0000000000
      1822        60  POPC      H14C            9.2829635147       -4.8953016962       20.2704520421  MEMB      8               0.0000000000
      1823        60  POPC      C15             9.8967457050       -2.3177676334       20.8767457595  MEMB      8               0.0000000000
      1824        60  POPC      H15A           10.0949613448       -1.5419581397       21.6046999685  MEMB      8               0.0000000000
      1825        60  POPC      H15B            9.8128963197       -1.8652860167       19.8955565824  MEMB      8               0.0000000000
      1826        60  POPC      H15C           10.7368143170       -3.0055735177       20.8853748547  MEMB      8               0.0000000000
      1827        60  POPC      C11             7.2818078646       -1.2888059542       19.8083305906  MEMB      8               0.0000000000
      1828        60  POPC      H11A            8.1331748740       -0.5638657864       19.8148870472  MEMB      8               0.0000000000
      1829        60  POPC      H11B            6.3359905577       -0.7020152842       19.8541218716  MEMB      8               0.0000000000
      1830        60  POPC      P               7.6235831288       -1.4312902778       17.2508810167  MEMB      8               0.0000000000
      1831        60  POPC      O13             8.2943237683       -2.4451993541       16.4161618832  MEMB      8               0.0000000000
      1832        60  POPC      O14             8.3901010646       -0.1916771653       17.5357562322  MEMB      8               0.0000000000
      1833        60  POPC      O12             7.2628124508       -2.1196234097       18.6451282655  MEMB      8               0.0000000000
      1834        60  POPC      O11             6.2109975302       -1.0337778798       16.6323093843  MEMB      8               0.0000000000
      1835        60  POPC      C1              5.1604220610       -1.9276051337       16.2654058728  MEMB      8               0.0000000000
      1836        60  POPC      HA              4.2601560716       -1.6406831851       16.8511575896  MEMB      8               0.0000000000
      1837        60  POPC      HB              5.4044344082       -2.9850329925       16.5178534186  MEMB      8               0.0000000000
      1838        60  POPC      C2              4.7455372259       -1.8596692361       14.7462109776  MEMB      8               0.0000000000
      1839        60  POPC      HS              3.8088982784       -2.4571842499       14.6469050476  MEMB      8               0.0000000000
      1840        60  POPC      O21             5.7830204077       -2.4356467748       13.9492825638  MEMB      8               0.0000000000
      1841        60  POPC      C21             5.5117625861       -3.1020563018       12.8505388935  MEMB      8               0.0000000000
      1842        60  POPC      O22             4.4269666539       -3.2121348315       12.3030422611  MEMB      8               0.0000000000
      1843        60  POPC      C22             6.8214147316       -3.8125039890       12.4694930600  MEMB      8               0.0000000000
      1844        60  POPC      H2R             7.5529081222       -3.0085215967       12.2458830556  MEMB      8               0.0000000000
      1845        60  POPC      H2S             6.6573949979       -4.4162805544       11.5597394210  MEMB      8               0.0000000000
      1846        60  POPC      C3              4.4410723894       -0.4118160466       14.2544811301  MEMB      8               0.0000000000
      1847        60  POPC      HX              3.6688781995        0.0162735904       14.9279918243  MEMB      8               0.0000000000
      1848        60  POPC      HY              3.9887532424       -0.4950995646       13.2379501826  MEMB      8               0.0000000000
      1849        60  POPC      O31             5.6063865893        0.4400834944       14.3041172288  MEMB      8               0.0000000000
      1850        60  POPC      C31             6.1065639347        0.8445515907       13.1564153938  MEMB      8               0.0000000000
      1851        60  POPC      O32             5.5677506812        0.7395440105       12.0713195283  MEMB      8               0.0000000000
      1852        60  POPC      C32             7.4645178831        1.4985774174       13.3808528903  MEMB      8               0.0000000000
      1853        60  POPC      H2X             7.4981324121        1.9075859625       14.4082987734  MEMB      8               0.0000000000
      1854        60  POPC      H2Y             7.5821309732        2.3205124080       12.6461474402  MEMB      8               0.0000000000
      1855        60  POPC      C23             7.3683378979       -4.6682283320       13.6503117355  MEMB      8               0.0000000000
      1856        60  POPC      H3R             6.6123119812       -5.4316373880       13.9426141378  MEMB      8               0.0000000000
      1857        60  POPC      H3S             7.5324406900       -4.0006108551       14.5336662392  MEMB      8               0.0000000000
      1858        60  POPC      C24             8.7089335073       -5.3874008363       13.4080930377  MEMB      8               0.0000000000
      1859        60  POPC      H4R             8.5692774786       -6.1919859358       12.6614101258  MEMB      8               0.0000000000
      1860        60  POPC      H4S             9.0277544659       -5.8408084275       14.3738858749  MEMB      8               0.0000000000
      1861        60  POPC      C25             9.8466651322       -4.4753370597       12.9536079973  MEMB      8               0.0000000000
      1862        60  POPC      H5R             9.7684442378       -3.5475837520       13.5657416543  MEMB      8               0.0000000000
      1863        60  POPC      H5S             9.6634298702       -4.2377543355       11.8933047581  MEMB      8               0.0000000000
      1864        60  POPC      C26            11.2761060737       -5.0303226845       13.1218596808  MEMB      8               0.0000000000
      1865        60  POPC      H6R            11.3617330136       -5.4677992234       14.1415437371  MEMB      8               0.0000000000
      1866        60  POPC      H6S            11.9726554631       -4.1626074711       13.0762052246  MEMB      8               0.0000000000
      1867        60  POPC      C27            11.7408148491       -6.0564094792       12.0652714651  MEMB      8               0.0000000000
      1868        60  POPC      H7R            11.0740962557       -6.9439668293       12.1055506654  MEMB      8               0.0000000000
      1869        60  POPC      H7S            12.7637620464       -6.3994414495       12.3465097418  MEMB      8               0.0000000000
      1870        60  POPC      C28            11.7969527606       -5.4666943504       10.6352695025  MEMB      8               0.0000000000
      1871        60  POPC      H8R            12.3763865204       -4.5176057235       10.7034091334  MEMB      8               0.0000000000
      1872        60  POPC      H8S            10.7616139497       -5.1919757253       10.3371387581  MEMB      8               0.0000000000
      1873        60  POPC      C29            12.3852399276       -6.3542964066        9.5641168679  MEMB      8               0.0000000000
      1874        60  POPC      H91            12.3976303647       -7.4338848340        9.7926427913  MEMB      8               0.0000000000
      1875        60  POPC      C210           12.8597927660       -5.9186560389        8.3752259457  MEMB      8               0.0000000000
      1876        60  POPC      H101           13.2656265971       -6.6510214252        7.6591083858  MEMB      8               0.0000000000
      1877        60  POPC      C211           12.8918436442       -4.4818489769        7.9013037426  MEMB      8               0.0000000000
      1878        60  POPC      H11R           13.9508303612       -4.1374507545        7.8916096059  MEMB      8               0.0000000000
      1879        60  POPC      H11S           12.3566648294       -3.8049743619        8.6044603268  MEMB      8               0.0000000000
      1880        60  POPC      C212           12.3156329491       -4.2088411329        6.4898153918  MEMB      8               0.0000000000
      1881        60  POPC      H12R           12.8251772950       -4.8324410676        5.7251362329  MEMB      8               0.0000000000
      1882        60  POPC      H12S           12.5604034491       -3.1476510704        6.2554583555  MEMB      8               0.0000000000
      1883        60  POPC      C213           10.7872054958       -4.3545826834        6.3706797971  MEMB      8               0.0000000000
      1884        60  POPC      H13R           10.3399899930       -4.1152609136        7.3625333114  MEMB      8               0.0000000000
      1885        60  POPC      H13S           10.5286430006       -5.4066935571        6.1365613153  MEMB      8               0.0000000000
      1886        60  POPC      C214           10.1452247267       -3.4013973803        5.3408703029  MEMB      8               0.0000000000
      1887        60  POPC      H14R           10.4381831880       -2.3629844775        5.6194595555  MEMB      8               0.0000000000
      1888        60  POPC      H14S            9.0359977839       -3.4626355816        5.4160645941  MEMB      8               0.0000000000
      1889        60  POPC      C215           10.5355778315       -3.6376781375        3.8713746852  MEMB      8               0.0000000000
      1890        60  POPC      H15R            9.9725452990       -4.5021625124        3.4594688948  MEMB      8               0.0000000000
      1891        60  POPC      H15S           11.6133803321       -3.8941436309        3.8045824896  MEMB      8               0.0000000000
      1892        60  POPC      C216           10.2820544885       -2.3781054863        3.0248570286  MEMB      8               0.0000000000
      1893        60  POPC      H16R           10.8444058266       -1.5389155707        3.4962238761  MEMB      8               0.0000000000
      1894        60  POPC      H16S            9.2024953155       -2.1090345177        3.0531330969  MEMB      8               0.0000000000
      1895        60  POPC      C217           10.7396533640       -2.4980693733        1.5648149033  MEMB      8               0.0000000000
      1896        60  POPC      H17R           11.6888271758       -3.0786130380        1.5130804737  MEMB      8               0.0000000000
      1897        60  POPC      H17S           10.9584003117       -1.4718546855        1.1941895396  MEMB      8               0.0000000000
      1898        60  POPC      C218            9.6902668924       -3.1153747590        0.6421715820  MEMB      8               0.0000000000
      1899        60  POPC      H18R           10.0284652134       -3.0968696927       -0.4154224014  MEMB      8               0.0000000000
      1900        60  POPC      H18S            8.7317721335       -2.5584898172        0.7219274357  MEMB      8               0.0000000000
      1901        60  POPC      H18T            9.4931344117       -4.1699169459        0.9242748457  MEMB      8               0.0000000000
      1902        60  POPC      C33             8.5977721354        0.4721950061       13.2628352105  MEMB      8               0.0000000000
      1903        60  POPC      H3X             8.4237809304       -0.3583450453       13.9918194024  MEMB      8               0.0000000000
      1904        60  POPC      H3Y             9.5540213136        0.9592280765       13.5568636549  MEMB      8               0.0000000000
      1905        60  POPC      C34             8.7527386602       -0.1112583015       11.8565202494  MEMB      8               0.0000000000
      1906        60  POPC      H4X             8.9028182946        0.6971398605       11.1068463033  MEMB      8               0.0000000000
      1907        60  POPC      H4Y             7.8329123840       -0.6765804891       11.5833406348  MEMB      8               0.0000000000
      1908        60  POPC      C35             9.9450487737       -1.0634219834       11.8484999008  MEMB      8               0.0000000000
      1909        60  POPC      H5X             9.8816276767       -1.6544814498       12.7896279513  MEMB      8               0.0000000000
      1910        60  POPC      H5Y            10.8647026100       -0.4698920273       11.9358206367  MEMB      8               0.0000000000
      1911        60  POPC      C36            10.0308544189       -2.0527775725       10.6803759989  MEMB      8               0.0000000000
      1912        60  POPC      H6X             9.1329681866       -2.6951463547       10.7482235843  MEMB      8               0.0000000000
      1913        60  POPC      H6Y            10.9259336802       -2.6939465547       10.8559347346  MEMB      8               0.0000000000
      1914        60  POPC      C37            10.1459331871       -1.4865833950        9.2588016520  MEMB      8               0.0000000000
      1915        60  POPC      H7X            10.6585054475       -2.2381982380        8.6165391562  MEMB      8               0.0000000000
      1916        60  POPC      H7Y            10.7833934180       -0.5876216677        9.2874108709  MEMB      8               0.0000000000
      1917        60  POPC      C38             8.8024092939       -1.1588999401        8.6009213504  MEMB      8               0.0000000000
      1918        60  POPC      H8X             8.9810796807       -0.7045059911        7.6003566838  MEMB      8               0.0000000000
      1919        60  POPC      H8Y             8.2908212204       -0.3834170467        9.2090678356  MEMB      8               0.0000000000
      1920        60  POPC      C39             7.8955165945       -2.3868609647        8.4267535132  MEMB      8               0.0000000000
      1921        60  POPC      H9X             8.2127448120       -3.2263783343        9.0794618432  MEMB      8               0.0000000000
      1922        60  POPC      H9Y             8.0045859562       -2.7690604950        7.3877893408  MEMB      8               0.0000000000
      1923        60  POPC      C310            6.4241705745       -2.0810842636        8.7373632530  MEMB      8               0.0000000000
      1924        60  POPC      H10X            6.2996797557       -1.0578095127        9.1555300815  MEMB      8               0.0000000000
      1925        60  POPC      H10Y            6.0642716952       -2.7894652965        9.5183657364  MEMB      8               0.0000000000
      1926        60  POPC      C311            5.5541421900       -2.2290057287        7.4928294146  MEMB      8               0.0000000000
      1927        60  POPC      H11X            4.4779145017       -2.1981275527        7.7749248894  MEMB      8               0.0000000000
      1928        60  POPC      H11Y            5.7447858038       -3.2377106279        7.0565623675  MEMB      8               0.0000000000
      1929        60  POPC      C312            5.8247111650       -1.1561031745        6.4257509570  MEMB      8               0.0000000000
      1930        60  POPC      H12X            6.9133149922       -0.9502972683        6.3375166335  MEMB      8               0.0000000000
      1931        60  POPC      H12Y            5.3187539394       -0.2132704633        6.7288244292  MEMB      8               0.0000000000
      1932        60  POPC      C313            5.3055328633       -1.6639805722        5.0855585389  MEMB      8               0.0000000000
      1933        60  POPC      H13X            4.3094570048       -2.1198433739        5.2964269690  MEMB      8               0.0000000000
      1934        60  POPC      H13Y            5.9688769387       -2.4849374306        4.7281078265  MEMB      8               0.0000000000
      1935        60  POPC      C314            5.1235694776       -0.6414595130        3.9543847610  MEMB      8               0.0000000000
      1936        60  POPC      H14X            6.1079730569       -0.2909672878        3.5792283762  MEMB      8               0.0000000000
      1937        60  POPC      H14Y            4.5419365002        0.2354840623        4.3112727636  MEMB      8               0.0000000000
      1938        60  POPC      C315            4.3407243675       -1.3696962755        2.8591649255  MEMB      8               0.0000000000
      1939        60  POPC      H15X            3.4534082806       -1.7793244990        3.3559267046  MEMB      8               0.0000000000
      1940        60  POPC      H15Y            4.9624603590       -2.2249827773        2.5120336202  MEMB      8               0.0000000000
      1941        60  POPC      C316            3.7883435621       -0.6187254703        1.6628093273  MEMB      8               0.0000000000
      1942        60  POPC      H16X            3.7826338708        0.4809520641        1.8047380185  MEMB      8               0.0000000000
      1943        60  POPC      H16Y            2.7830359921       -0.9558711931        1.3639201444  MEMB      8               0.0000000000
      1944        60  POPC      H16Z            4.3927840002       -0.9227910381        0.8009815324  MEMB      8               0.0000000000
      1945        61  POPC      N               3.4432217757      -18.3727819225       19.1105125614  MEMB      9               0.0000000000
      1946        61  POPC      C12             3.7410377119      -16.8739002514       18.9775004086  MEMB      9               0.0000000000
      1947        61  POPC      H12A            2.8734462511      -16.3395538292       18.6136624547  MEMB      9               0.0000000000
      1948        61  POPC      H12B            4.5120190854      -16.7490031156       18.2171353253  MEMB      9               0.0000000000
      1949        61  POPC      C13             2.4475978519      -18.6021148267       20.2090065735  MEMB      9               0.0000000000
      1950        61  POPC      H13A            2.3618121827      -19.6590242159       20.4215583527  MEMB      9               0.0000000000
      1951        61  POPC      H13B            2.7585375994      -18.0876462263       21.1141617049  MEMB      9               0.0000000000
      1952        61  POPC      H13C            1.4475666225      -18.2428206298       19.9431260172  MEMB      9               0.0000000000
      1953        61  POPC      C14             2.8862709271      -18.9219232282       17.8371330119  MEMB      9               0.0000000000
      1954        61  POPC      H14A            3.5983559181      -18.7747528807       17.0326368220  MEMB      9               0.0000000000
      1955        61  POPC      H14B            2.6662003737      -19.9812561479       17.9138105378  MEMB      9               0.0000000000
      1956        61  POPC      H14C            1.9824228765      -18.3966535484       17.5499105423  MEMB      9               0.0000000000
      1957        61  POPC      C15             4.7455713782      -19.0590045936       19.4160347071  MEMB      9               0.0000000000
      1958        61  POPC      H15A            5.4509301131      -18.9721072034       18.5838481082  MEMB      9               0.0000000000
      1959        61  POPC      H15B            4.6334673872      -20.1024993097       19.6464862921  MEMB      9               0.0000000000
      1960        61  POPC      H15C            5.2450081163      -18.5354289708       20.2311419318  MEMB      9               0.0000000000
      1961        61  POPC      C11             4.2822113228      -16.0623795012       20.1925783846  MEMB      9               0.0000000000
      1962        61  POPC      H11A            3.6782238036      -16.2621000223       21.1027743874  MEMB      9               0.0000000000
      1963        61  POPC      H11B            4.1444009318      -14.9747144300       19.9670485400  MEMB      9               0.0000000000
      1964        61  POPC      P               6.7693980828      -15.9074989027       19.3869791418  MEMB      9               0.0000000000
      1965        61  POPC      O13             6.9292601223      -17.0298252556       18.4422960167  MEMB      9               0.0000000000
      1966        61  POPC      O14             7.9695294741      -15.3858737622       20.0835545109  MEMB      9               0.0000000000
      1967        61  POPC      O12             5.6533236933      -16.3453971012       20.4596934381  MEMB      9               0.0000000000
      1968        61  POPC      O11             6.0898845749      -14.7268723296       18.5921149209  MEMB      9               0.0000000000
      1969        61  POPC      C1              6.8838635737      -14.0839734411       17.5743631780  MEMB      9               0.0000000000
      1970        61  POPC      HA              7.6658782343      -14.7554172552       17.1350901045  MEMB      9               0.0000000000
      1971        61  POPC      HB              7.4010028012      -13.2047008821       18.0194562833  MEMB      9               0.0000000000
      1972        61  POPC      C2              6.0237372776      -13.5873478479       16.3753906206  MEMB      9               0.0000000000
      1973        61  POPC      HS              5.2444040444      -12.8953315576       16.7706137854  MEMB      9               0.0000000000
      1974        61  POPC      O21             5.4641693512      -14.6927266737       15.6587782378  MEMB      9               0.0000000000
      1975        61  POPC      C21             4.3886520090      -15.2250032970       16.1590334023  MEMB      9               0.0000000000
      1976        61  POPC      O22             3.6449129536      -14.7564744943       17.0034634204  MEMB      9               0.0000000000
      1977        61  POPC      C22             4.1758325376      -16.5776340445       15.4936665971  MEMB      9               0.0000000000
      1978        61  POPC      H2R             4.1861321935      -16.4024732071       14.4012431023  MEMB      9               0.0000000000
      1979        61  POPC      H2S             3.1834749936      -16.9688978226       15.7876666959  MEMB      9               0.0000000000
      1980        61  POPC      C3              6.8694719441      -12.8133280534       15.3445945091  MEMB      9               0.0000000000
      1981        61  POPC      HX              7.4309641746      -13.5667824482       14.7383995577  MEMB      9               0.0000000000
      1982        61  POPC      HY              7.6244532793      -12.2338900420       15.8950204740  MEMB      9               0.0000000000
      1983        61  POPC      O31             6.0241525958      -11.9248470654       14.5725426962  MEMB      9               0.0000000000
      1984        61  POPC      C31             6.2436244250      -11.9174316061       13.2642346599  MEMB      9               0.0000000000
      1985        61  POPC      O32             7.1632911309      -12.4853810133       12.7057910552  MEMB      9               0.0000000000
      1986        61  POPC      C32             5.1476317101      -11.1077861639       12.5777202128  MEMB      9               0.0000000000
      1987        61  POPC      H2X             5.3269316130      -11.1633138137       11.4836168371  MEMB      9               0.0000000000
      1988        61  POPC      H2Y             5.2459749118      -10.0506515102       12.8976674401  MEMB      9               0.0000000000
      1989        61  POPC      C23             5.3052242718      -17.5782453496       15.8001933421  MEMB      9               0.0000000000
      1990        61  POPC      H3R             5.2862991395      -17.8818061251       16.8651232414  MEMB      9               0.0000000000
      1991        61  POPC      H3S             6.2947457522      -17.0918221268       15.6361428545  MEMB      9               0.0000000000
      1992        61  POPC      C24             5.2277338133      -18.8292834158       14.9246142671  MEMB      9               0.0000000000
      1993        61  POPC      H4R             4.2471563613      -19.3362882793       15.0602329369  MEMB      9               0.0000000000
      1994        61  POPC      H4S             6.0180394320      -19.5308150055       15.2764630987  MEMB      9               0.0000000000
      1995        61  POPC      C25             5.4363709975      -18.5668250578       13.4224438853  MEMB      9               0.0000000000
      1996        61  POPC      H5R             4.5818223423      -18.0079120169       12.9939451341  MEMB      9               0.0000000000
      1997        61  POPC      H5S             5.4508276996      -19.5587630401       12.9280973778  MEMB      9               0.0000000000
      1998        61  POPC      C26             6.7379076599      -17.8210749214       13.0716619295  MEMB      9               0.0000000000
      1999        61  POPC      H6R             7.4526476731      -17.9269262852       13.9179654484  MEMB      9               0.0000000000
      2000        61  POPC      H6S             6.5178216036      -16.7378224144       12.9518750225  MEMB      9               0.0000000000
      2001        61  POPC      C27             7.4435520679      -18.3955902547       11.8262968288  MEMB      9               0.0000000000
      2002        61  POPC      H7R             6.8017332971      -19.1943515191       11.4013625000  MEMB      9               0.0000000000
      2003        61  POPC      H7S             8.3898457846      -18.8904972867       12.1403164739  MEMB      9               0.0000000000
      2004        61  POPC      C28             7.7249005400      -17.3928906317       10.6950137139  MEMB      9               0.0000000000
      2005        61  POPC      H8R             6.7422797303      -17.0893036672       10.2681798362  MEMB      9               0.0000000000
      2006        61  POPC      H8S             8.2840001784      -17.9296602406        9.8945058374  MEMB      9               0.0000000000
      2007        61  POPC      C29             8.5111205339      -16.1965362901       11.1629183346  MEMB      9               0.0000000000
      2008        61  POPC      H91             9.2355449431      -16.4045018455       11.9657049484  MEMB      9               0.0000000000
      2009        61  POPC      C210            8.4124268197      -14.9453103108       10.6813021762  MEMB      9               0.0000000000
      2010        61  POPC      H101            9.0249930556      -14.1533403556       11.1436903087  MEMB      9               0.0000000000
      2011        61  POPC      C211            7.5042535657      -14.4760991839        9.5696325333  MEMB      9               0.0000000000
      2012        61  POPC      H11R            7.6968740909      -13.3945037786        9.3848157411  MEMB      9               0.0000000000
      2013        61  POPC      H11S            6.4311259109      -14.5617558278        9.8513572410  MEMB      9               0.0000000000
      2014        61  POPC      C212            7.7869363970      -15.2416479160        8.2661610450  MEMB      9               0.0000000000
      2015        61  POPC      H12R            7.3376940350      -16.2568417353        8.2964028195  MEMB      9               0.0000000000
      2016        61  POPC      H12S            8.8923954625      -15.3652916761        8.1727090812  MEMB      9               0.0000000000
      2017        61  POPC      C213            7.3113656775      -14.5317453126        6.9994377942  MEMB      9               0.0000000000
      2018        61  POPC      H13R            7.5573684055      -13.4494848968        7.0748604870  MEMB      9               0.0000000000
      2019        61  POPC      H13S            6.2079664398      -14.6106949652        6.8908036587  MEMB      9               0.0000000000
      2020        61  POPC      C214            8.0125149465      -15.1237279427        5.7701424860  MEMB      9               0.0000000000
      2021        61  POPC      H14R            7.4501025331      -16.0204131918        5.4298471144  MEMB      9               0.0000000000
      2022        61  POPC      H14S            9.0390372485      -15.4632518557        6.0372943950  MEMB      9               0.0000000000
      2023        61  POPC      C215            8.1537431574      -14.1141290146        4.6336652497  MEMB      9               0.0000000000
      2024        61  POPC      H15R            8.8208683584      -13.2850054965        4.9543896061  MEMB      9               0.0000000000
      2025        61  POPC      H15S            7.1418556283      -13.6859596427        4.4385388578  MEMB      9               0.0000000000
      2026        61  POPC      C216            8.6638375707      -14.7565502176        3.3383652319  MEMB      9               0.0000000000
      2027        61  POPC      H16R            8.1517797093      -14.2532518100        2.4951074510  MEMB      9               0.0000000000
      2028        61  POPC      H16S            8.3214857790      -15.8155403483        3.3309268930  MEMB      9               0.0000000000
      2029        61  POPC      C217           10.1852051308      -14.7015332615        3.0841411055  MEMB      9               0.0000000000
      2030        61  POPC      H17R           10.4386909345      -15.4408500774        2.2893555794  MEMB      9               0.0000000000
      2031        61  POPC      H17S           10.7283432441      -15.0321142322        3.9963739422  MEMB      9               0.0000000000
      2032        61  POPC      C218           10.7134795663      -13.3468891598        2.5959568909  MEMB      9               0.0000000000
      2033        61  POPC      H18R           10.1855207866      -13.0147458499        1.6776003467  MEMB      9               0.0000000000
      2034        61  POPC      H18S           11.7954557605      -13.4118199555        2.3584491600  MEMB      9               0.0000000000
      2035        61  POPC      H18T           10.5813648567      -12.5691814973        3.3723434419  MEMB      9               0.0000000000
      2036        61  POPC      C33             3.7374297911      -11.6316684401       12.9145147421  MEMB      9               0.0000000000
      2037        61  POPC      H3X             3.0040964600      -11.1174094992       12.2479900010  MEMB      9               0.0000000000
      2038        61  POPC      H3Y             3.4740794503      -11.3651543067       13.9628967928  MEMB      9               0.0000000000
      2039        61  POPC      C34             3.6308742370      -13.1523066919       12.7280409810  MEMB      9               0.0000000000
      2040        61  POPC      H4X             4.2401296652      -13.6649053269       13.5058372037  MEMB      9               0.0000000000
      2041        61  POPC      H4Y             4.0607184948      -13.4152119104       11.7350436935  MEMB      9               0.0000000000
      2042        61  POPC      C35             2.1909349898      -13.6631867387       12.8186797042  MEMB      9               0.0000000000
      2043        61  POPC      H5X             1.6072046790      -13.1672723808       12.0225114717  MEMB      9               0.0000000000
      2044        61  POPC      H5Y             1.7545304396      -13.3455980429       13.7944978503  MEMB      9               0.0000000000
      2045        61  POPC      C36             2.0701069450      -15.1883825328       12.6958835254  MEMB      9               0.0000000000
      2046        61  POPC      H6X             1.0071409328      -15.4820095020       12.7884349658  MEMB      9               0.0000000000
      2047        61  POPC      H6Y             2.5710261543      -15.6337346471       13.5736904467  MEMB      9               0.0000000000
      2048        61  POPC      C37             2.6875922765      -15.8067748861       11.4288295520  MEMB      9               0.0000000000
      2049        61  POPC      H7X             3.7941576888      -15.6767864849       11.4725537091  MEMB      9               0.0000000000
      2050        61  POPC      H7Y             2.3419180907      -15.2851628697       10.5113232549  MEMB      9               0.0000000000
      2051        61  POPC      C38             2.3655963320      -17.3077422674       11.3439150848  MEMB      9               0.0000000000
      2052        61  POPC      H8X             1.3218247108      -17.4691161484       11.0063122684  MEMB      9               0.0000000000
      2053        61  POPC      H8Y             2.4487163770      -17.7278655061       12.3745359972  MEMB      9               0.0000000000
      2054        61  POPC      C39             3.3280173513      -18.1157234711       10.4665912562  MEMB      9               0.0000000000
      2055        61  POPC      H9X             3.1433166088      -19.1985919180       10.6478895357  MEMB      9               0.0000000000
      2056        61  POPC      H9Y             4.3808557344      -17.9103002056       10.7702047994  MEMB      9               0.0000000000
      2057        61  POPC      C310            3.2081687417      -17.8621487624        8.9640523840  MEMB      9               0.0000000000
      2058        61  POPC      H10X            3.5985553678      -16.8437084313        8.7487679397  MEMB      9               0.0000000000
      2059        61  POPC      H10Y            2.1461644422      -17.8986419647        8.6360363982  MEMB      9               0.0000000000
      2060        61  POPC      C311            4.0067173889      -18.9282619826        8.2002539721  MEMB      9               0.0000000000
      2061        61  POPC      H11X            3.5287835042      -19.9208458651        8.3720139645  MEMB      9               0.0000000000
      2062        61  POPC      H11Y            5.0406794642      -18.9784706817        8.6065540022  MEMB      9               0.0000000000
      2063        61  POPC      C312            4.0724176893      -18.6826639130        6.6945715527  MEMB      9               0.0000000000
      2064        61  POPC      H12X            3.0318712868      -18.6196757659        6.3219026834  MEMB      9               0.0000000000
      2065        61  POPC      H12Y            4.5645177733      -19.5589014088        6.2140646354  MEMB      9               0.0000000000
      2066        61  POPC      C313            4.8120640138      -17.3959229045        6.3092675395  MEMB      9               0.0000000000
      2067        61  POPC      H13X            5.8758539744      -17.4801989217        6.6231073579  MEMB      9               0.0000000000
      2068        61  POPC      H13Y            4.3697523227      -16.5274242389        6.8460253455  MEMB      9               0.0000000000
      2069        61  POPC      C314            4.7253373346      -17.0750464177        4.8127677690  MEMB      9               0.0000000000
      2070        61  POPC      H14X            5.3478079960      -16.1777853806        4.5975402383  MEMB      9               0.0000000000
      2071        61  POPC      H14Y            3.6708190197      -16.8127465198        4.5648820990  MEMB      9               0.0000000000
      2072        61  POPC      C315            5.1646604386      -18.2242552797        3.9016275444  MEMB      9               0.0000000000
      2073        61  POPC      H15X            4.4985620092      -19.1043859628        4.0534645944  MEMB      9               0.0000000000
      2074        61  POPC      H15Y            6.1983574998      -18.5368835311        4.1763793909  MEMB      9               0.0000000000
      2075        61  POPC      C316            5.1098033785      -17.8186969133        2.4309346713  MEMB      9               0.0000000000
      2076        61  POPC      H16X            4.1134942763      -17.3940287497        2.1856716887  MEMB      9               0.0000000000
      2077        61  POPC      H16Y            5.2753807091      -18.6920024896        1.7723489162  MEMB      9               0.0000000000
      2078        61  POPC      H16Z            5.8855921695      -17.0532699298        2.2146863514  MEMB      9               0.0000000000
      2079        62  POPC      N              12.5586990397      -11.0360670221       20.2683603323  MEMB      10              0.0000000000
      2080        62  POPC      C12            12.3839784326      -11.4549990683       18.8289174064  MEMB      10              0.0000000000
      2081        62  POPC      H12A           11.9359205643      -12.4451628617       18.8175102993  MEMB      10              0.0000000000
      2082        62  POPC      H12B           13.3456996224      -11.4859791940       18.3445029715  MEMB      10              0.0000000000
      2083        62  POPC      C13            11.3256208258      -11.4469000804       21.0195523664  MEMB      10              0.0000000000
      2084        62  POPC      H13A           11.2868739876      -12.5127157395       21.1583569261  MEMB      10              0.0000000000
      2085        62  POPC      H13B           11.2520528633      -10.9736860175       21.9938095164  MEMB      10              0.0000000000
      2086        62  POPC      H13C           10.4505399016      -11.1690379958       20.4234506301  MEMB      10              0.0000000000
      2087        62  POPC      C14            13.7401887071      -11.6935474386       20.8852249359  MEMB      10              0.0000000000
      2088        62  POPC      H14A           13.8905994197      -11.3644082694       21.9158420045  MEMB      10              0.0000000000
      2089        62  POPC      H14B           13.5765724136      -12.7646322224       20.9823944564  MEMB      10              0.0000000000
      2090        62  POPC      H14C           14.6535791092      -11.5151602450       20.3348459964  MEMB      10              0.0000000000
      2091        62  POPC      C15            12.6758739109       -9.5499808442       20.3772971752  MEMB      10              0.0000000000
      2092        62  POPC      H15A           13.4287663330       -9.1358529297       19.7310575867  MEMB      10              0.0000000000
      2093        62  POPC      H15B           12.8699861891       -9.2058833954       21.3859605324  MEMB      10              0.0000000000
      2094        62  POPC      H15C           11.7476077220       -9.0616021418       20.0683637936  MEMB      10              0.0000000000
      2095        62  POPC      C11            11.4835374422      -10.5606630841       17.9610788187  MEMB      10              0.0000000000
      2096        62  POPC      H11A           11.3532905291      -11.0847837549       17.0006491998  MEMB      10              0.0000000000
      2097        62  POPC      H11B           11.9971187190       -9.5910317927       17.7432517962  MEMB      10              0.0000000000
      2098        62  POPC      P               9.5127328574       -9.0015854186       18.6245644804  MEMB      10              0.0000000000
      2099        62  POPC      O13            10.4845925740       -7.9920972747       19.1042474521  MEMB      10              0.0000000000
      2100        62  POPC      O14             8.2807193955       -9.2024624087       19.4272262968  MEMB      10              0.0000000000
      2101        62  POPC      O12            10.2121738451      -10.4074654852       18.5703229260  MEMB      10              0.0000000000
      2102        62  POPC      O11             9.1331851655       -8.7519773663       17.1025374623  MEMB      10              0.0000000000
      2103        62  POPC      C1              8.4548827982       -9.7474046656       16.3226353765  MEMB      10              0.0000000000
      2104        62  POPC      HA              7.3587387760       -9.5495809889       16.3403731257  MEMB      10              0.0000000000
      2105        62  POPC      HB              8.6194295768      -10.7628132503       16.7512407587  MEMB      10              0.0000000000
      2106        62  POPC      C2              8.9069728826       -9.8375137186       14.8149535207  MEMB      10              0.0000000000
      2107        62  POPC      HS              8.4776850462      -10.7744874969       14.3905810595  MEMB      10              0.0000000000
      2108        62  POPC      O21            10.3397942822       -9.8117932487       14.6807128486  MEMB      10              0.0000000000
      2109        62  POPC      C21            10.9044930472      -10.9915888382       14.6208388649  MEMB      10              0.0000000000
      2110        62  POPC      O22            10.3759328196      -12.0642863506       14.8690829840  MEMB      10              0.0000000000
      2111        62  POPC      C22            12.3612510273      -10.8355188751       14.2017347653  MEMB      10              0.0000000000
      2112        62  POPC      H2R            12.9198568019      -11.6979948267       14.6167785429  MEMB      10              0.0000000000
      2113        62  POPC      H2S            12.7673800587       -9.9015916386       14.6390954196  MEMB      10              0.0000000000
      2114        62  POPC      C3              8.3159535296       -8.7038479800       13.9271097722  MEMB      10              0.0000000000
      2115        62  POPC      HX              8.4389519189       -7.7904083231       14.5465420295  MEMB      10              0.0000000000
      2116        62  POPC      HY              7.2223903213       -8.8605633463       13.7899395377  MEMB      10              0.0000000000
      2117        62  POPC      O31             9.0333081845       -8.5261778350       12.6741939991  MEMB      10              0.0000000000
      2118        62  POPC      C31             8.4150549614       -8.7942053513       11.5161047455  MEMB      10              0.0000000000
      2119        62  POPC      O32             7.3231318196       -9.3151540683       11.4112693634  MEMB      10              0.0000000000
      2120        62  POPC      C32             9.2689880961       -8.2613687379       10.3293093631  MEMB      10              0.0000000000
      2121        62  POPC      H2X            10.2450701044       -8.7803186134       10.3911495638  MEMB      10              0.0000000000
      2122        62  POPC      H2Y             9.4423292026       -7.1835909704       10.5245471128  MEMB      10              0.0000000000
      2123        62  POPC      C23            12.4809668268      -10.8268023408       12.6623549532  MEMB      10              0.0000000000
      2124        62  POPC      H3R            13.5602967443      -10.7518891382       12.3962467889  MEMB      10              0.0000000000
      2125        62  POPC      H3S            11.9610848655       -9.9341474724       12.2449128237  MEMB      10              0.0000000000
      2126        62  POPC      C24            11.8912004469      -12.1018856505       12.0380778813  MEMB      10              0.0000000000
      2127        62  POPC      H4R            10.7784622135      -12.0647577059       12.0442695186  MEMB      10              0.0000000000
      2128        62  POPC      H4S            12.1778860341      -12.9612684657       12.6827791750  MEMB      10              0.0000000000
      2129        62  POPC      C25            12.3895614212      -12.3872529432       10.6150013546  MEMB      10              0.0000000000
      2130        62  POPC      H5R            12.0577135829      -13.4087809047       10.3155697331  MEMB      10              0.0000000000
      2131        62  POPC      H5S            13.5018580016      -12.3833477856       10.6150710787  MEMB      10              0.0000000000
      2132        62  POPC      C26            11.8714233834      -11.3931059215        9.5697305663  MEMB      10              0.0000000000
      2133        62  POPC      H6R            12.5516618644      -11.4446997370        8.6966919547  MEMB      10              0.0000000000
      2134        62  POPC      H6S            11.9215340964      -10.3567832260        9.9648690102  MEMB      10              0.0000000000
      2135        62  POPC      C27            10.4378528397      -11.7069009789        9.1055535893  MEMB      10              0.0000000000
      2136        62  POPC      H7R             9.8134496921      -10.8056718028        9.2656915344  MEMB      10              0.0000000000
      2137        62  POPC      H7S             9.9937179845      -12.5068907193        9.7361412032  MEMB      10              0.0000000000
      2138        62  POPC      C28            10.3246205458      -12.0922975651        7.6185574341  MEMB      10              0.0000000000
      2139        62  POPC      H8R            10.6078624748      -11.2012711633        7.0146036859  MEMB      10              0.0000000000
      2140        62  POPC      H8S             9.2549383347      -12.2852901061        7.3953913981  MEMB      10              0.0000000000
      2141        62  POPC      C29            11.1426990847      -13.3093391244        7.2657074175  MEMB      10              0.0000000000
      2142        62  POPC      H91            10.9537289566      -14.2034230553        7.8809257069  MEMB      10              0.0000000000
      2143        62  POPC      C210           12.0463941962      -13.3728866327        6.2734321131  MEMB      10              0.0000000000
      2144        62  POPC      H101           12.5898104690      -14.3112865070        6.0987122740  MEMB      10              0.0000000000
      2145        62  POPC      C211           12.3948315217      -12.2445410623        5.3397828637  MEMB      10              0.0000000000
      2146        62  POPC      H11R           11.4928368650      -11.6364308764        5.1092122987  MEMB      10              0.0000000000
      2147        62  POPC      H11S           12.7541163775      -12.6610206456        4.3728126493  MEMB      10              0.0000000000
      2148        62  POPC      C212           13.4842989009      -11.2955187719        5.8555151014  MEMB      10              0.0000000000
      2149        62  POPC      H12R           14.4368315520      -11.8693052528        5.8456299652  MEMB      10              0.0000000000
      2150        62  POPC      H12S           13.2922923344      -10.9741927547        6.8991765889  MEMB      10              0.0000000000
      2151        62  POPC      C213           13.5983386764      -10.0293817388        4.9922323178  MEMB      10              0.0000000000
      2152        62  POPC      H13R           13.4873613618      -10.2966441489        3.9232742708  MEMB      10              0.0000000000
      2153        62  POPC      H13S           14.5936730685       -9.5615756756        5.1120750052  MEMB      10              0.0000000000
      2154        62  POPC      C214           12.5888453597       -8.9476915098        5.3771106126  MEMB      10              0.0000000000
      2155        62  POPC      H14R           12.6471589237       -8.7720282590        6.4755823373  MEMB      10              0.0000000000
      2156        62  POPC      H14S           11.5708074984       -9.3276576611        5.1807232876  MEMB      10              0.0000000000
      2157        62  POPC      C215           12.8337550279       -7.6088695294        4.6573672714  MEMB      10              0.0000000000
      2158        62  POPC      H15R           13.8615305533       -7.2599117424        4.8978949806  MEMB      10              0.0000000000
      2159        62  POPC      H15S           12.1264033242       -6.8539767440        5.0689808421  MEMB      10              0.0000000000
      2160        62  POPC      C216           12.6559391684       -7.6287985282        3.1272713959  MEMB      10              0.0000000000
      2161        62  POPC      H16R           13.4199522447       -8.2800963693        2.6505128002  MEMB      10              0.0000000000
      2162        62  POPC      H16S           12.8164643506       -6.5889593871        2.7572517271  MEMB      10              0.0000000000
      2163        62  POPC      C217           11.2538843916       -8.0748883448        2.7032168327  MEMB      10              0.0000000000
      2164        62  POPC      H17R           10.5490153281       -7.6929798345        3.4765936157  MEMB      10              0.0000000000
      2165        62  POPC      H17S           11.2110545101       -9.1884591887        2.7044186573  MEMB      10              0.0000000000
      2166        62  POPC      C218           10.7686952419       -7.5545445776        1.3513265943  MEMB      10              0.0000000000
      2167        62  POPC      H18R            9.7143362143       -7.8651650707        1.1720263953  MEMB      10              0.0000000000
      2168        62  POPC      H18S           11.3936497803       -7.9542801796        0.5259249866  MEMB      10              0.0000000000
      2169        62  POPC      H18T           10.8077619578       -6.4436594473        1.3236567931  MEMB      10              0.0000000000
      2170        62  POPC      C33             8.7099637185       -8.3924463552        8.8619680472  MEMB      10              0.0000000000
      2171        62  POPC      H3X             7.8619272616       -7.6878790396        8.7299393589  MEMB      10              0.0000000000
      2172        62  POPC      H3Y             8.3191610786       -9.4197584246        8.6939023909  MEMB      10              0.0000000000
      2173        62  POPC      C34             9.7910944076       -8.0951390879        7.7862615396  MEMB      10              0.0000000000
      2174        62  POPC      H4X            10.5666146421       -8.8912666564        7.8392548524  MEMB      10              0.0000000000
      2175        62  POPC      H4Y            10.2820451666       -7.1400855337        8.0792101104  MEMB      10              0.0000000000
      2176        62  POPC      C35             9.3764304012       -7.9069070951        6.2935387660  MEMB      10              0.0000000000
      2177        62  POPC      H5X            10.3001001771       -7.7724392071        5.7021526095  MEMB      10              0.0000000000
      2178        62  POPC      H5Y             8.8215070417       -6.9454212525        6.2016760230  MEMB      10              0.0000000000
      2179        62  POPC      C36             8.5290499038       -9.0182869457        5.6378351742  MEMB      10              0.0000000000
      2180        62  POPC      H6X             7.5446921834       -8.5424816041        5.4582318478  MEMB      10              0.0000000000
      2181        62  POPC      H6Y             8.4294166462       -9.8587381674        6.3582207619  MEMB      10              0.0000000000
      2182        62  POPC      C37             8.8737602375       -9.5961844158        4.2467695473  MEMB      10              0.0000000000
      2183        62  POPC      H7X             9.9302084815       -9.9276712758        4.2500805306  MEMB      10              0.0000000000
      2184        62  POPC      H7Y             8.7391358179       -8.8319368857        3.4546878116  MEMB      10              0.0000000000
      2185        62  POPC      C38             8.0611683108      -10.8608218729        3.8897966105  MEMB      10              0.0000000000
      2186        62  POPC      H8X             7.5561904718      -11.2228055912        4.8110789272  MEMB      10              0.0000000000
      2187        62  POPC      H8Y             8.7870256217      -11.6435211727        3.6022328655  MEMB      10              0.0000000000
      2188        62  POPC      C39             7.0358657928      -10.7590127608        2.7473621480  MEMB      10              0.0000000000
      2189        62  POPC      H9X             6.9061187506       -9.7040402441        2.4259613803  MEMB      10              0.0000000000
      2190        62  POPC      H9Y             6.0627602197      -11.1191947995        3.1460788684  MEMB      10              0.0000000000
      2191        62  POPC      C310            7.2970736181      -11.6712148841        1.5377607694  MEMB      10              0.0000000000
      2192        62  POPC      H10X            6.3811645255      -12.2707362668        1.3184330254  MEMB      10              0.0000000000
      2193        62  POPC      H10Y            8.1111589726      -12.3773436693        1.7746069721  MEMB      10              0.0000000000
      2194        62  POPC      C311            7.6844990284      -10.8984270763        0.2816099532  MEMB      10              0.0000000000
      2195        62  POPC      H11X            8.3531456903      -10.0527996660        0.5614966092  MEMB      10              0.0000000000
      2196        62  POPC      H11Y            6.7464133237      -10.4889357210       -0.1482109204  MEMB      10              0.0000000000
      2197        62  POPC      C312            8.3857300060      -11.7736222844       -0.7650449375  MEMB      10              0.0000000000
      2198        62  POPC      H12X            7.6215078849      -12.4456633619       -1.2211709736  MEMB      10              0.0000000000
      2199        62  POPC      H12Y            9.1498614840      -12.4212582367       -0.2791346866  MEMB      10              0.0000000000
      2200        62  POPC      C313            9.0607549084      -10.9379763334       -1.8610609955  MEMB      10              0.0000000000
      2201        62  POPC      H13X            8.5367124216       -9.9605043405       -1.9653006794  MEMB      10              0.0000000000
      2202        62  POPC      H13Y            8.9628677707      -11.4859528461       -2.8256472857  MEMB      10              0.0000000000
      2203        62  POPC      C314           10.5569402067      -10.6917517094       -1.6075314732  MEMB      10              0.0000000000
      2204        62  POPC      H14X           11.0242476917      -11.6237676726       -1.2132836994  MEMB      10              0.0000000000
      2205        62  POPC      H14Y           10.6723086687       -9.9062800648       -0.8284138161  MEMB      10              0.0000000000
      2206        62  POPC      C315           11.3258138655      -10.2867551498       -2.8762637097  MEMB      10              0.0000000000
      2207        62  POPC      H15X           11.4194794370      -11.1911616611       -3.5146902703  MEMB      10              0.0000000000
      2208        62  POPC      H15Y           12.3541394105       -9.9685303628       -2.5883018517  MEMB      10              0.0000000000
      2209        62  POPC      C316           10.6814687744       -9.1908724250       -3.7252108221  MEMB      10              0.0000000000
      2210        62  POPC      H16X           10.4977379884       -8.2899235970       -3.1111173892  MEMB      10              0.0000000000
      2211        62  POPC      H16Y            9.7127575909       -9.5349197507       -4.1430038146  MEMB      10              0.0000000000
      2212        62  POPC      H16Z           11.3495760131       -8.9125414480       -4.5696829566  MEMB      10              0.0000000000
      2213        63  POPC      N             -10.0105808604       10.0493642375       19.8529008923  MEMB      11              0.0000000000
      2214        63  POPC      C12            -9.1104298037        8.9705120597       19.2594111645  MEMB      11              0.0000000000
      2215        63  POPC      H12A           -8.1388258395        8.9969258348       19.7395784511  MEMB      11              0.0000000000
      2216        63  POPC      H12B           -8.9744163475        9.1774866850       18.2079540867  MEMB      11              0.0000000000
      2217        63  POPC      C13            -9.3570547510       11.3819609837       19.8425812940  MEMB      11              0.0000000000
      2218        63  POPC      H13A           -9.9508377035       12.1086522789       20.3883661838  MEMB      11              0.0000000000
      2219        63  POPC      H13B           -8.3927386514       11.3448321536       20.3369844596  MEMB      11              0.0000000000
      2220        63  POPC      H13C           -9.1981496586       11.7548584710       18.8385377125  MEMB      11              0.0000000000
      2221        63  POPC      C14           -11.3132149517       10.1046499537       19.1299717087  MEMB      11              0.0000000000
      2222        63  POPC      H14A          -11.6826625493        9.0767946786       19.0657254783  MEMB      11              0.0000000000
      2223        63  POPC      H14B          -12.0577172354       10.6711907191       19.6492099505  MEMB      11              0.0000000000
      2224        63  POPC      H14C          -11.2004353170       10.4023022683       18.1003159304  MEMB      11              0.0000000000
      2225        63  POPC      C15           -10.3094253150        9.6482600009       21.2643853913  MEMB      11              0.0000000000
      2226        63  POPC      H15A           -9.3853319424        9.4415879963       21.7925009194  MEMB      11              0.0000000000
      2227        63  POPC      H15B          -10.8936541801        8.7297312114       21.2755983543  MEMB      11              0.0000000000
      2228        63  POPC      H15C          -10.8348646253       10.4298062169       21.7980291722  MEMB      11              0.0000000000
      2229        63  POPC      C11            -9.6167671708        7.5139800775       19.3700653082  MEMB      11              0.0000000000
      2230        63  POPC      H11A           -9.6157050426        7.1777826223       20.4344889987  MEMB      11              0.0000000000
      2231        63  POPC      H11B           -8.9249035531        6.8477029674       18.8042728516  MEMB      11              0.0000000000
      2232        63  POPC      P             -11.6775639899        6.1234804910       18.5486042333  MEMB      11              0.0000000000
      2233        63  POPC      O13           -11.2010603307        5.0987995691       19.5074279524  MEMB      11              0.0000000000
      2234        63  POPC      O14           -11.6182601863        5.8659725580       17.0945830912  MEMB      11              0.0000000000
      2235        63  POPC      O12           -10.9170784802        7.4546726436       18.8302378153  MEMB      11              0.0000000000
      2236        63  POPC      O11           -13.1186448989        6.5896933026       19.0086740879  MEMB      11              0.0000000000
      2237        63  POPC      C1            -13.8090944003        7.6614882987       18.3702499153  MEMB      11              0.0000000000
      2238        63  POPC      HA            -13.2673928436        8.0525233687       17.4736413575  MEMB      11              0.0000000000
      2239        63  POPC      HB            -13.9339475632        8.4803732489       19.1074342984  MEMB      11              0.0000000000
      2240        63  POPC      C2            -15.2090155185        7.2124939605       17.8924328884  MEMB      11              0.0000000000
      2241        63  POPC      HS            -15.7330806359        6.7486442270       18.7597324977  MEMB      11              0.0000000000
      2242        63  POPC      O21           -15.0281773596        6.3290434147       16.7908713684  MEMB      11              0.0000000000
      2243        63  POPC      C21           -15.3629229023        5.0609573236       16.9742860598  MEMB      11              0.0000000000
      2244        63  POPC      O22           -15.8749409235        4.6195473756       17.9921434807  MEMB      11              0.0000000000
      2245        63  POPC      C22           -15.1754491481        4.3509941513       15.6349030037  MEMB      11              0.0000000000
      2246        63  POPC      H2R           -16.1283726711        4.4691739934       15.0823872189  MEMB      11              0.0000000000
      2247        63  POPC      H2S           -14.9989689149        3.2799133766       15.8174237269  MEMB      11              0.0000000000
      2248        63  POPC      C3            -16.0793320885        8.4047785037       17.4006972109  MEMB      11              0.0000000000
      2249        63  POPC      HX            -16.2900274017        9.0563931229       18.2773130892  MEMB      11              0.0000000000
      2250        63  POPC      HY            -17.0603414053        8.0113846447       17.0475564589  MEMB      11              0.0000000000
      2251        63  POPC      O31           -15.3956642470        9.1904053586       16.4026324775  MEMB      11              0.0000000000
      2252        63  POPC      C31           -15.7252744350        8.9414698716       15.1214524191  MEMB      11              0.0000000000
      2253        63  POPC      O32           -16.6033272761        8.1898413735       14.7474507991  MEMB      11              0.0000000000
      2254        63  POPC      C32           -14.9000820296        9.9152535798       14.2716624592  MEMB      11              0.0000000000
      2255        63  POPC      H2X           -13.8251525344        9.7371629235       14.4760387400  MEMB      11              0.0000000000
      2256        63  POPC      H2Y           -15.1632718669       10.9361774775       14.6155926845  MEMB      11              0.0000000000
      2257        63  POPC      C23           -14.0034829132        4.9142678247       14.7981971126  MEMB      11              0.0000000000
      2258        63  POPC      H3R           -13.0537015390        4.8088208901       15.3734625778  MEMB      11              0.0000000000
      2259        63  POPC      H3S           -14.1595633254        6.0023965899       14.6154501579  MEMB      11              0.0000000000
      2260        63  POPC      C24           -13.8513787682        4.2161645350       13.4424270287  MEMB      11              0.0000000000
      2261        63  POPC      H4R           -14.8676536196        3.9726166196       13.0582507378  MEMB      11              0.0000000000
      2262        63  POPC      H4S           -13.3067981168        3.2555142805       13.5785593493  MEMB      11              0.0000000000
      2263        63  POPC      C25           -13.1514108903        5.0953265677       12.3896823979  MEMB      11              0.0000000000
      2264        63  POPC      H5R           -13.8001235545        5.9748426917       12.1970348783  MEMB      11              0.0000000000
      2265        63  POPC      H5S           -13.0775178159        4.5248192584       11.4401217307  MEMB      11              0.0000000000
      2266        63  POPC      C26           -11.7526474405        5.5894131344       12.7968434315  MEMB      11              0.0000000000
      2267        63  POPC      H6R           -11.0544874500        4.7265088268       12.7656840448  MEMB      11              0.0000000000
      2268        63  POPC      H6S           -11.7727705432        5.9618597478       13.8470450027  MEMB      11              0.0000000000
      2269        63  POPC      C27           -11.1953136379        6.7277543428       11.9130529673  MEMB      11              0.0000000000
      2270        63  POPC      H7R           -10.1677552424        6.9704913058       12.2671758021  MEMB      11              0.0000000000
      2271        63  POPC      H7S           -11.8154957657        7.6307748874       12.0887172677  MEMB      11              0.0000000000
      2272        63  POPC      C28           -11.1728977884        6.4536648286       10.3957867797  MEMB      11              0.0000000000
      2273        63  POPC      H8R           -10.8053707817        7.3652558289        9.8757012909  MEMB      11              0.0000000000
      2274        63  POPC      H8S           -12.2122148580        6.2760186443       10.0432436514  MEMB      11              0.0000000000
      2275        63  POPC      C29           -10.2646214537        5.3066732045       10.0664932550  MEMB      11              0.0000000000
      2276        63  POPC      H91            -9.2500504253        5.3973789941       10.4794148482  MEMB      11              0.0000000000
      2277        63  POPC      C210          -10.5576143353        4.2505677174        9.2942366434  MEMB      11              0.0000000000
      2278        63  POPC      H101           -9.7966542452        3.4643987029        9.1746247249  MEMB      11              0.0000000000
      2279        63  POPC      C211          -11.8525620000        3.9814165828        8.5818396912  MEMB      11              0.0000000000
      2280        63  POPC      H11R          -12.7257801522        4.1505634840        9.2484072486  MEMB      11              0.0000000000
      2281        63  POPC      H11S          -11.8756870088        2.9086055058        8.2857540858  MEMB      11              0.0000000000
      2282        63  POPC      C212          -12.0317148115        4.8319322375        7.3073362065  MEMB      11              0.0000000000
      2283        63  POPC      H12R          -11.1306820425        4.7375101296        6.6608424706  MEMB      11              0.0000000000
      2284        63  POPC      H12S          -12.1427085092        5.9097099814        7.5634689774  MEMB      11              0.0000000000
      2285        63  POPC      C213          -13.2514553260        4.3614806655        6.5057499044  MEMB      11              0.0000000000
      2286        63  POPC      H13R          -14.1481730769        4.9125403281        6.8544753671  MEMB      11              0.0000000000
      2287        63  POPC      H13S          -13.4187870756        3.2922772909        6.7563221545  MEMB      11              0.0000000000
      2288        63  POPC      C214          -13.0575363154        4.4436935121        4.9805542621  MEMB      11              0.0000000000
      2289        63  POPC      H14R          -12.1657752495        3.8173918681        4.7387194856  MEMB      11              0.0000000000
      2290        63  POPC      H14S          -12.8314526756        5.4844416877        4.6699824981  MEMB      11              0.0000000000
      2291        63  POPC      C215          -14.2502744118        3.9015840659        4.1681502726  MEMB      11              0.0000000000
      2292        63  POPC      H15R          -14.8682339839        3.2342774579        4.8100570843  MEMB      11              0.0000000000
      2293        63  POPC      H15S          -13.8410000063        3.2813925004        3.3356297072  MEMB      11              0.0000000000
      2294        63  POPC      C216          -15.1552735465        4.9688200030        3.5371467025  MEMB      11              0.0000000000
      2295        63  POPC      H16R          -15.9972250768        4.4641733140        3.0117004784  MEMB      11              0.0000000000
      2296        63  POPC      H16S          -14.5664697421        5.5096652401        2.7632851038  MEMB      11              0.0000000000
      2297        63  POPC      C217          -15.7236047140        5.9708020165        4.5493196244  MEMB      11              0.0000000000
      2298        63  POPC      H17R          -15.1288811022        5.9463339824        5.4802773777  MEMB      11              0.0000000000
      2299        63  POPC      H17S          -16.7605672990        5.6706311624        4.8215056580  MEMB      11              0.0000000000
      2300        63  POPC      C218          -15.7044304437        7.4124838261        4.0574021968  MEMB      11              0.0000000000
      2301        63  POPC      H18R          -15.9659342645        8.1153989493        4.8778576302  MEMB      11              0.0000000000
      2302        63  POPC      H18S          -16.4520062083        7.5151171041        3.2482120742  MEMB      11              0.0000000000
      2303        63  POPC      H18T          -14.7025555533        7.6926041913        3.6641166125  MEMB      11              0.0000000000
      2304        63  POPC      C33           -15.1531355505        9.8291039115       12.7488656050  MEMB      11              0.0000000000
      2305        63  POPC      H3X           -14.5939803571       10.6574758260       12.2575367775  MEMB      11              0.0000000000
      2306        63  POPC      H3Y           -16.2266605524        9.9849627287       12.5214948228  MEMB      11              0.0000000000
      2307        63  POPC      C34           -14.6865646651        8.4970641696       12.1446600402  MEMB      11              0.0000000000
      2308        63  POPC      H4X           -15.4694765851        7.7279346144       12.3396624325  MEMB      11              0.0000000000
      2309        63  POPC      H4Y           -13.7623469394        8.1741674173       12.6709160322  MEMB      11              0.0000000000
      2310        63  POPC      C35           -14.4141317792        8.5478978116       10.6297740552  MEMB      11              0.0000000000
      2311        63  POPC      H5X           -15.3373360040        8.8921767659       10.1157744532  MEMB      11              0.0000000000
      2312        63  POPC      H5Y           -14.2061652883        7.5115732521       10.2754269494  MEMB      11              0.0000000000
      2313        63  POPC      C36           -13.2168937165        9.4331316882       10.2352621183  MEMB      11              0.0000000000
      2314        63  POPC      H6X           -12.4402255328        8.8074774023        9.7461278194  MEMB      11              0.0000000000
      2315        63  POPC      H6Y           -12.7582854096        9.8547014255       11.1578420880  MEMB      11              0.0000000000
      2316        63  POPC      C37           -13.5768816656       10.5868691559        9.2859097374  MEMB      11              0.0000000000
      2317        63  POPC      H7X           -12.6715429555       11.2162316191        9.1348019382  MEMB      11              0.0000000000
      2318        63  POPC      H7Y           -14.3432915333       11.2248426186        9.7815734670  MEMB      11              0.0000000000
      2319        63  POPC      C38           -14.1184650650       10.1479862891        7.9111731136  MEMB      11              0.0000000000
      2320        63  POPC      H8X           -14.3554664757       11.0684311348        7.3291384928  MEMB      11              0.0000000000
      2321        63  POPC      H8Y           -15.0738148169        9.5945577238        8.0486360017  MEMB      11              0.0000000000
      2322        63  POPC      C39           -13.1508877494        9.2916164618        7.0734404741  MEMB      11              0.0000000000
      2323        63  POPC      H9X           -13.6208426298        9.0881678960        6.0845853432  MEMB      11              0.0000000000
      2324        63  POPC      H9Y           -12.9858189378        8.3078830097        7.5668314028  MEMB      11              0.0000000000
      2325        63  POPC      C310          -11.7913668249        9.9729948199        6.8532177922  MEMB      11              0.0000000000
      2326        63  POPC      H10X          -11.2122711434        9.9235075617        7.8041754760  MEMB      11              0.0000000000
      2327        63  POPC      H10Y          -11.9645004137       11.0476501782        6.6213518591  MEMB      11              0.0000000000
      2328        63  POPC      C311          -10.9432468539        9.3502254307        5.7302401369  MEMB      11              0.0000000000
      2329        63  POPC      H11X          -11.3190830808        8.3353094952        5.4753484815  MEMB      11              0.0000000000
      2330        63  POPC      H11Y           -9.9017875210        9.2295966435        6.1116081447  MEMB      11              0.0000000000
      2331        63  POPC      C312          -10.8751189569       10.2338384389        4.4711676076  MEMB      11              0.0000000000
      2332        63  POPC      H12X          -10.0411761557        9.8833290975        3.8213734907  MEMB      11              0.0000000000
      2333        63  POPC      H12Y          -10.6263681242       11.2721682653        4.7878492743  MEMB      11              0.0000000000
      2334        63  POPC      C313          -12.1770721209       10.2526464054        3.6517192231  MEMB      11              0.0000000000
      2335        63  POPC      H13X          -13.0267445796       10.5066098326        4.3220499957  MEMB      11              0.0000000000
      2336        63  POPC      H13Y          -12.3614113444        9.2329487526        3.2513363648  MEMB      11              0.0000000000
      2337        63  POPC      C314          -12.1475322711       11.2867756256        2.5111834644  MEMB      11              0.0000000000
      2338        63  POPC      H14X          -11.3086332251       11.0724979188        1.8215079911  MEMB      11              0.0000000000
      2339        63  POPC      H14Y          -11.9424621554       12.2833709123        2.9644193544  MEMB      11              0.0000000000
      2340        63  POPC      C315          -13.4514764313       11.3797233764        1.6988045503  MEMB      11              0.0000000000
      2341        63  POPC      H15X          -13.3868033673       12.2829735191        1.0480175893  MEMB      11              0.0000000000
      2342        63  POPC      H15Y          -14.2914705406       11.5334183994        2.4133308845  MEMB      11              0.0000000000
      2343        63  POPC      C316          -13.7708365554       10.1770410712        0.8062406640  MEMB      11              0.0000000000
      2344        63  POPC      H16X          -14.7517982615       10.3055748458        0.3044112742  MEMB      11              0.0000000000
      2345        63  POPC      H16Y          -13.8087868478        9.2456312474        1.4106792951  MEMB      11              0.0000000000
      2346        63  POPC      H16Z          -12.9929573940       10.0620364775        0.0199519467  MEMB      11              0.0000000000
      2347        64  POPC      N              -1.8582364744       20.7835459988       18.1976783898  MEMB      12              0.0000000000
      2348        64  POPC      C12            -2.3416059778       22.0201672839       18.9384404029  MEMB      12              0.0000000000
      2349        64  POPC      H12A           -3.3523773182       21.8592320082       19.2819372249  MEMB      12              0.0000000000
      2350        64  POPC      H12B           -2.3530562271       22.8643409785       18.2532387724  MEMB      12              0.0000000000
      2351        64  POPC      C13            -1.7812370869       19.6083606603       19.1457092884  MEMB      12              0.0000000000
      2352        64  POPC      H13A           -2.7804494173       19.2116803167       19.3314118376  MEMB      12              0.0000000000
      2353        64  POPC      H13B           -1.1728660942       18.8001184645       18.7423036849  MEMB      12              0.0000000000
      2354        64  POPC      H13C           -1.3284936587       19.9172999451       20.0863222758  MEMB      12              0.0000000000
      2355        64  POPC      C14            -2.8067901159       20.4351448577       17.0997078859  MEMB      12              0.0000000000
      2356        64  POPC      H14A           -3.0296611578       21.2581648576       16.4233755461  MEMB      12              0.0000000000
      2357        64  POPC      H14B           -2.4219513687       19.6307632023       16.4796777859  MEMB      12              0.0000000000
      2358        64  POPC      H14C           -3.7553795493       20.0710802185       17.5014649969  MEMB      12              0.0000000000
      2359        64  POPC      C15            -0.4893262992       21.0627455620       17.6569785037  MEMB      12              0.0000000000
      2360        64  POPC      H15A           -0.4887284513       21.8879662434       16.9540748772  MEMB      12              0.0000000000
      2361        64  POPC      H15B           -0.0523829838       20.1874084537       17.2069445542  MEMB      12              0.0000000000
      2362        64  POPC      H15C            0.1609256580       21.3886910376       18.4781065100  MEMB      12              0.0000000000
      2363        64  POPC      C11            -1.5158899203       22.4942296886       20.1490302392  MEMB      12              0.0000000000
      2364        64  POPC      H11A           -1.3157118876       21.6526301268       20.8424009768  MEMB      12              0.0000000000
      2365        64  POPC      H11B           -2.1510128596       23.2330872188       20.7006188414  MEMB      12              0.0000000000
      2366        64  POPC      P               0.2944370163       24.3997145813       20.3091263884  MEMB      12              0.0000000000
      2367        64  POPC      O13             1.7195258112       24.2366522580       20.6730371202  MEMB      12              0.0000000000
      2368        64  POPC      O14            -0.5882147284       24.9303952246       21.3849058979  MEMB      12              0.0000000000
      2369        64  POPC      O12            -0.2763950646       23.0380780660       19.7132534893  MEMB      12              0.0000000000
      2370        64  POPC      O11             0.2106115561       25.3283420922       19.0298347886  MEMB      12              0.0000000000
      2371        64  POPC      C1             -0.6684216889       26.4552834769       18.9454971580  MEMB      12              0.0000000000
      2372        64  POPC      HA             -0.0740758499       27.3344341524       18.6002427406  MEMB      12              0.0000000000
      2373        64  POPC      HB             -1.1027597774       26.7533611421       19.9275798299  MEMB      12              0.0000000000
      2374        64  POPC      C2             -1.8361537581       26.2816354654       17.9196144276  MEMB      12              0.0000000000
      2375        64  POPC      HS             -2.3460027638       27.2792379730       17.9155131019  MEMB      12              0.0000000000
      2376        64  POPC      O21            -2.7410327638       25.1978032579       18.3147459150  MEMB      12              0.0000000000
      2377        64  POPC      C21            -3.8811026274       25.2924999274       17.6169977819  MEMB      12              0.0000000000
      2378        64  POPC      O22            -4.2490906645       26.3149838105       17.0793321963  MEMB      12              0.0000000000
      2379        64  POPC      C22            -4.6446719614       23.9789400160       17.5558128787  MEMB      12              0.0000000000
      2380        64  POPC      H2R            -4.6683985383       23.5520597042       18.5813792672  MEMB      12              0.0000000000
      2381        64  POPC      H2S            -4.1068585783       23.2827396149       16.8781162064  MEMB      12              0.0000000000
      2382        64  POPC      C3             -1.2705097348       26.0303457618       16.4700357092  MEMB      12              0.0000000000
      2383        64  POPC      HX             -0.1588852651       26.0894034409       16.5077486836  MEMB      12              0.0000000000
      2384        64  POPC      HY             -1.6358928577       26.8915625603       15.8573251781  MEMB      12              0.0000000000
      2385        64  POPC      O31            -1.6955790075       24.7697692139       15.8917249962  MEMB      12              0.0000000000
      2386        64  POPC      C31            -1.4891768942       24.6763668285       14.5801276693  MEMB      12              0.0000000000
      2387        64  POPC      O32            -1.0267780433       25.5513249427       13.8718889015  MEMB      12              0.0000000000
      2388        64  POPC      C32            -1.9661669366       23.2855386893       14.1376163011  MEMB      12              0.0000000000
      2389        64  POPC      H2X            -3.0759252158       23.3052693888       14.1298307405  MEMB      12              0.0000000000
      2390        64  POPC      H2Y            -1.6338805967       22.5510459018       14.8986049344  MEMB      12              0.0000000000
      2391        64  POPC      C23            -6.1072162698       24.1598524781       17.0605299790  MEMB      12              0.0000000000
      2392        64  POPC      H3R            -6.6538067814       24.9507482753       17.6073640924  MEMB      12              0.0000000000
      2393        64  POPC      H3S            -6.6145209791       23.1990769285       17.3353824184  MEMB      12              0.0000000000
      2394        64  POPC      C24            -6.3197512248       24.2744016234       15.5350340780  MEMB      12              0.0000000000
      2395        64  POPC      H4R            -7.3862170912       24.0074534706       15.3428507715  MEMB      12              0.0000000000
      2396        64  POPC      H4S            -5.6796866949       23.5170830429       15.0396856691  MEMB      12              0.0000000000
      2397        64  POPC      C25            -6.0818323254       25.6177900219       14.8139046947  MEMB      12              0.0000000000
      2398        64  POPC      H5R            -5.0151096181       25.9112128116       14.9049210237  MEMB      12              0.0000000000
      2399        64  POPC      H5S            -6.7110162134       26.4162688011       15.2577687935  MEMB      12              0.0000000000
      2400        64  POPC      C26            -6.3772318121       25.4950792742       13.3067698573  MEMB      12              0.0000000000
      2401        64  POPC      H6R            -7.4739250721       25.4901125207       13.1217676455  MEMB      12              0.0000000000
      2402        64  POPC      H6S            -5.9909753808       24.5068768651       12.9823484503  MEMB      12              0.0000000000
      2403        64  POPC      C27            -5.6961578942       26.5478245751       12.4190142700  MEMB      12              0.0000000000
      2404        64  POPC      H7R            -4.6321312773       26.6862388715       12.7152259504  MEMB      12              0.0000000000
      2405        64  POPC      H7S            -6.2052302553       27.5255088558       12.5620279167  MEMB      12              0.0000000000
      2406        64  POPC      C28            -5.7510426751       26.1815183527       10.9205698492  MEMB      12              0.0000000000
      2407        64  POPC      H8R            -5.4304590800       27.0767955141       10.3394264661  MEMB      12              0.0000000000
      2408        64  POPC      H8S            -6.8117783841       25.9794292248       10.6479401964  MEMB      12              0.0000000000
      2409        64  POPC      C29            -4.8868431647       24.9970674550       10.5602844011  MEMB      12              0.0000000000
      2410        64  POPC      H91            -4.4821356299       24.4212542692       11.4079949674  MEMB      12              0.0000000000
      2411        64  POPC      C210           -4.5963101125       24.6138343419        9.3054241261  MEMB      12              0.0000000000
      2412        64  POPC      H101           -3.9326062997       23.7496577966        9.1421767770  MEMB      12              0.0000000000
      2413        64  POPC      C211           -5.0796894561       25.2946016782        8.0521684375  MEMB      12              0.0000000000
      2414        64  POPC      H11R           -4.1893955796       25.6017463837        7.4621744512  MEMB      12              0.0000000000
      2415        64  POPC      H11S           -5.6579522997       26.2234165090        8.2624121079  MEMB      12              0.0000000000
      2416        64  POPC      C212           -5.9738520859       24.3719373710        7.1987156332  MEMB      12              0.0000000000
      2417        64  POPC      H12R           -6.8617157329       24.0597144569        7.7942789366  MEMB      12              0.0000000000
      2418        64  POPC      H12S           -5.4095051256       23.4494846993        6.9357410168  MEMB      12              0.0000000000
      2419        64  POPC      C213           -6.4676347634       25.0232989640        5.8933171752  MEMB      12              0.0000000000
      2420        64  POPC      H13R           -7.2492652351       25.7760794399        6.1415436917  MEMB      12              0.0000000000
      2421        64  POPC      H13S           -6.9343232777       24.2496558760        5.2435735285  MEMB      12              0.0000000000
      2422        64  POPC      C214           -5.3666031700       25.7323510171        5.0951531110  MEMB      12              0.0000000000
      2423        64  POPC      H14R           -4.9497997313       26.5368021079        5.7315984623  MEMB      12              0.0000000000
      2424        64  POPC      H14S           -5.8151221889       26.2307623422        4.2073789276  MEMB      12              0.0000000000
      2425        64  POPC      C215           -4.2151062114       24.8174022305        4.6472679472  MEMB      12              0.0000000000
      2426        64  POPC      H15R           -3.9225012754       24.1128278039        5.4520082225  MEMB      12              0.0000000000
      2427        64  POPC      H15S           -3.3212962898       25.4414433689        4.4385745319  MEMB      12              0.0000000000
      2428        64  POPC      C216           -4.5519129466       24.0665439448        3.3601761739  MEMB      12              0.0000000000
      2429        64  POPC      H16R           -5.0402773869       24.7757940687        2.6528385304  MEMB      12              0.0000000000
      2430        64  POPC      H16S           -5.2782799664       23.2609641755        3.6008609966  MEMB      12              0.0000000000
      2431        64  POPC      C217           -3.3325582123       23.4622298316        2.6609158882  MEMB      12              0.0000000000
      2432        64  POPC      H17R           -2.9021433075       22.6681123851        3.3121510585  MEMB      12              0.0000000000
      2433        64  POPC      H17S           -2.5533726204       24.2467036650        2.5245267053  MEMB      12              0.0000000000
      2434        64  POPC      C218           -3.7002073435       22.8803411961        1.2948082808  MEMB      12              0.0000000000
      2435        64  POPC      H18R           -2.8797837970       22.2461383849        0.8988781826  MEMB      12              0.0000000000
      2436        64  POPC      H18S           -3.8998210887       23.6999345255        0.5698301630  MEMB      12              0.0000000000
      2437        64  POPC      H18T           -4.6190272388       22.2601756907        1.3810424793  MEMB      12              0.0000000000
      2438        64  POPC      C33            -1.4624151041       22.8494146646       12.7457344572  MEMB      12              0.0000000000
      2439        64  POPC      H3X            -1.7929799608       23.5755120193       11.9677735817  MEMB      12              0.0000000000
      2440        64  POPC      H3Y            -1.9235873657       21.8629826433       12.4989955232  MEMB      12              0.0000000000
      2441        64  POPC      C34             0.0619875619       22.6910373774       12.6805762246  MEMB      12              0.0000000000
      2442        64  POPC      H4X             0.4203418115       22.0254020289       13.4960485116  MEMB      12              0.0000000000
      2443        64  POPC      H4Y             0.5321210220       23.6906670742       12.8257835017  MEMB      12              0.0000000000
      2444        64  POPC      C35             0.5230792290       22.1304032226       11.3279690405  MEMB      12              0.0000000000
      2445        64  POPC      H5X            -0.0080746842       22.6967001624       10.5291091630  MEMB      12              0.0000000000
      2446        64  POPC      H5Y             0.2249337186       21.0625722358       11.2455354370  MEMB      12              0.0000000000
      2447        64  POPC      C36             2.0359263785       22.2738003501       11.1166877300  MEMB      12              0.0000000000
      2448        64  POPC      H6X             2.5699770810       21.7222028054       11.9217089159  MEMB      12              0.0000000000
      2449        64  POPC      H6Y             2.3099415401       23.3482194521       11.2174306633  MEMB      12              0.0000000000
      2450        64  POPC      C37             2.5254135386       21.7644909780        9.7510564247  MEMB      12              0.0000000000
      2451        64  POPC      H7X             2.3681638494       20.6644878353        9.7051097942  MEMB      12              0.0000000000
      2452        64  POPC      H7Y             3.6189455162       21.9578075346        9.6758082051  MEMB      12              0.0000000000
      2453        64  POPC      C38             1.8411844931       22.4006020566        8.5283653922  MEMB      12              0.0000000000
      2454        64  POPC      H8X             0.7707952587       22.1008426067        8.5276777104  MEMB      12              0.0000000000
      2455        64  POPC      H8Y             2.3018441549       21.9827688789        7.6046769632  MEMB      12              0.0000000000
      2456        64  POPC      C39             1.9415787392       23.9342686828        8.4684987068  MEMB      12              0.0000000000
      2457        64  POPC      H9X             3.0074067228       24.2328082819        8.5700764985  MEMB      12              0.0000000000
      2458        64  POPC      H9Y             1.3847087947       24.3663881131        9.3296109734  MEMB      12              0.0000000000
      2459        64  POPC      C310            1.3836257083       24.5352680157        7.1649626419  MEMB      12              0.0000000000
      2460        64  POPC      H10X            2.0803682133       24.2960510382        6.3314293462  MEMB      12              0.0000000000
      2461        64  POPC      H10Y            1.3475266640       25.6433155608        7.2602394657  MEMB      12              0.0000000000
      2462        64  POPC      C311           -0.0099269266       24.0000773296        6.8090257497  MEMB      12              0.0000000000
      2463        64  POPC      H11X           -0.6742098792       24.1226569220        7.6954690018  MEMB      12              0.0000000000
      2464        64  POPC      H11Y            0.0545303190       22.9110639528        6.5896367055  MEMB      12              0.0000000000
      2465        64  POPC      C312           -0.6764127663       24.6916552148        5.6115909720  MEMB      12              0.0000000000
      2466        64  POPC      H12X           -0.8543616837       25.7601960909        5.8626183036  MEMB      12              0.0000000000
      2467        64  POPC      H12Y           -1.6675088852       24.2084736298        5.4642459879  MEMB      12              0.0000000000
      2468        64  POPC      C313            0.0832082509       24.6154048477        4.2769142089  MEMB      12              0.0000000000
      2469        64  POPC      H13X            0.9754420669       25.2776141385        4.3135031470  MEMB      12              0.0000000000
      2470        64  POPC      H13Y           -0.5933657716       25.0142546586        3.4865370194  MEMB      12              0.0000000000
      2471        64  POPC      C314            0.5211150608       23.2012962363        3.8641280784  MEMB      12              0.0000000000
      2472        64  POPC      H14X           -0.2652730812       22.4644543572        4.1443583888  MEMB      12              0.0000000000
      2473        64  POPC      H14Y            1.4478553948       22.9323384730        4.4203286555  MEMB      12              0.0000000000
      2474        64  POPC      C315            0.7891541711       23.0811393630        2.3563839626  MEMB      12              0.0000000000
      2475        64  POPC      H15X           -0.1785865936       23.1938689462        1.8129440992  MEMB      12              0.0000000000
      2476        64  POPC      H15Y            1.1688973346       22.0550548167        2.1436477441  MEMB      12              0.0000000000
      2477        64  POPC      C316            1.7857887754       24.1151705609        1.8232808921  MEMB      12              0.0000000000
      2478        64  POPC      H16X            2.7033674008       24.1314569241        2.4509290465  MEMB      12              0.0000000000
      2479        64  POPC      H16Y            1.3364658179       25.1323069657        1.8378875914  MEMB      12              0.0000000000
      2480        64  POPC      H16Z            2.0759150023       23.8740128857        0.7780435822  MEMB      12              0.0000000000
      2481        65  POPC      N              15.7074736758       12.7981862522       21.3844548027  MEMB      13              0.0000000000
      2482        65  POPC      C12            14.9412204602       13.2274275959       20.1294828582  MEMB      13              0.0000000000
      2483        65  POPC      H12A           14.5263613003       14.2070896677       20.3030905697  MEMB      13              0.0000000000
      2484        65  POPC      H12B           14.1271077930       12.5292293759       19.9671097785  MEMB      13              0.0000000000
      2485        65  POPC      C13            15.9836868756       11.3218342085       21.3047261214  MEMB      13              0.0000000000
      2486        65  POPC      H13A           16.7023433384       11.0000114154       22.0495152822  MEMB      13              0.0000000000
      2487        65  POPC      H13B           15.0697711250       10.7464388774       21.3794079089  MEMB      13              0.0000000000
      2488        65  POPC      H13C           16.3974768821       11.1043388647       20.3120499812  MEMB      13              0.0000000000
      2489        65  POPC      C14            17.0389255731       13.4719539284       21.4696622451  MEMB      13              0.0000000000
      2490        65  POPC      H14A           17.6533621279       13.1350381401       20.6383020691  MEMB      13              0.0000000000
      2491        65  POPC      H14B           16.9483495555       14.5456176841       21.4290190776  MEMB      13              0.0000000000
      2492        65  POPC      H14C           17.5519951569       13.2086931780       22.3882214175  MEMB      13              0.0000000000
      2493        65  POPC      C15            14.9502895391       13.1116393468       22.6318657297  MEMB      13              0.0000000000
      2494        65  POPC      H15A           15.6059409675       12.9954567446       23.4987303208  MEMB      13              0.0000000000
      2495        65  POPC      H15B           14.1305784006       12.4181193155       22.7719901114  MEMB      13              0.0000000000
      2496        65  POPC      H15C           14.5941535153       14.1333676792       22.6330042426  MEMB      13              0.0000000000
      2497        65  POPC      C11            15.6725954744       13.2651255214       18.7621306364  MEMB      13              0.0000000000
      2498        65  POPC      H11A           16.5619362110       13.9303493358       18.8081038319  MEMB      13              0.0000000000
      2499        65  POPC      H11B           14.9802720427       13.7266104901       18.0158112669  MEMB      13              0.0000000000
      2500        65  POPC      P              15.7796659227       11.3049471765       16.9589579752  MEMB      13              0.0000000000
      2501        65  POPC      O13            14.6938966106       12.0433075413       16.2801471481  MEMB      13              0.0000000000
      2502        65  POPC      O14            15.5971099065        9.8431761413       17.1543980162  MEMB      13              0.0000000000
      2503        65  POPC      O12            16.0561982453       11.9470864829       18.3930519363  MEMB      13              0.0000000000
      2504        65  POPC      O11            17.1458907467       11.5379603573       16.1981138054  MEMB      13              0.0000000000
      2505        65  POPC      C1             18.3110283078       12.0168320077       16.8874586166  MEMB      13              0.0000000000
      2506        65  POPC      HA             18.8024761734       11.1881911717       17.4482586121  MEMB      13              0.0000000000
      2507        65  POPC      HB             18.0759795574       12.8148829948       17.6251619820  MEMB      13              0.0000000000
      2508        65  POPC      C2             19.3436964658       12.6354057260       15.8987323973  MEMB      13              0.0000000000
      2509        65  POPC      HS             20.0412542752       13.2918450056       16.4674555076  MEMB      13              0.0000000000
      2510        65  POPC      O21            18.7191171327       13.3920484724       14.8295772503  MEMB      13              0.0000000000
      2511        65  POPC      C21            17.8137205541       14.2812666807       15.1729110349  MEMB      13              0.0000000000
      2512        65  POPC      O22            17.6602738277       14.7799505099       16.2771366007  MEMB      13              0.0000000000
      2513        65  POPC      C22            16.9617369116       14.7184905288       13.9688109491  MEMB      13              0.0000000000
      2514        65  POPC      H2R            16.8645512191       15.8214059002       14.0260533079  MEMB      13              0.0000000000
      2515        65  POPC      H2S            15.9567827879       14.2706742807       14.1345544043  MEMB      13              0.0000000000
      2516        65  POPC      C3             20.2092877558       11.4784854589       15.3161326247  MEMB      13              0.0000000000
      2517        65  POPC      HX             20.7574833826       11.0153353895       16.1675521129  MEMB      13              0.0000000000
      2518        65  POPC      HY             20.9931105548       11.8776819287       14.6438449152  MEMB      13              0.0000000000
      2519        65  POPC      O31            19.3846067946       10.4601725162       14.7013521989  MEMB      13              0.0000000000
      2520        65  POPC      C31            19.0202207454       10.7517691505       13.4657828206  MEMB      13              0.0000000000
      2521        65  POPC      O32            19.5297944170       11.5996837891       12.7586161269  MEMB      13              0.0000000000
      2522        65  POPC      C32            17.8479600367        9.8945721661       12.9992118794  MEMB      13              0.0000000000
      2523        65  POPC      H2X            16.9859764210       10.1936899801       13.6357321748  MEMB      13              0.0000000000
      2524        65  POPC      H2Y            18.0663054282        8.8251646770       13.1759234986  MEMB      13              0.0000000000
      2525        65  POPC      C23            17.4659165550       14.3169503907       12.5599080250  MEMB      13              0.0000000000
      2526        65  POPC      H3R            17.4351655153       13.2077419846       12.4825781269  MEMB      13              0.0000000000
      2527        65  POPC      H3S            18.5191734725       14.6335860842       12.3986885901  MEMB      13              0.0000000000
      2528        65  POPC      C24            16.5696032432       14.9265771531       11.4672464189  MEMB      13              0.0000000000
      2529        65  POPC      H4R            16.8241422886       15.9975246061       11.3198746296  MEMB      13              0.0000000000
      2530        65  POPC      H4S            15.5203607440       14.8789336203       11.8445794340  MEMB      13              0.0000000000
      2531        65  POPC      C25            16.5824103787       14.1994642978       10.1138386754  MEMB      13              0.0000000000
      2532        65  POPC      H5R            15.7088095286       14.5747523882        9.5377912261  MEMB      13              0.0000000000
      2533        65  POPC      H5S            16.4216924720       13.1090182219       10.2627646952  MEMB      13              0.0000000000
      2534        65  POPC      C26            17.8420219398       14.4194103310        9.2604244496  MEMB      13              0.0000000000
      2535        65  POPC      H6R            18.7074866695       13.9928338832        9.8198328778  MEMB      13              0.0000000000
      2536        65  POPC      H6S            18.0338908864       15.5024519782        9.1094456933  MEMB      13              0.0000000000
      2537        65  POPC      C27            17.7525233342       13.7074781052        7.8987461586  MEMB      13              0.0000000000
      2538        65  POPC      H7R            17.1956363514       12.7564639775        8.0398376191  MEMB      13              0.0000000000
      2539        65  POPC      H7S            18.7853013291       13.4362688408        7.5768152603  MEMB      13              0.0000000000
      2540        65  POPC      C28            17.1187844502       14.5123859568        6.7411469172  MEMB      13              0.0000000000
      2541        65  POPC      H8R            17.1646516974       13.8447031952        5.8504532523  MEMB      13              0.0000000000
      2542        65  POPC      H8S            17.7765104883       15.3826870699        6.5181283254  MEMB      13              0.0000000000
      2543        65  POPC      C29            15.6983936293       14.9922235871        6.9076459118  MEMB      13              0.0000000000
      2544        65  POPC      H91            15.6028590730       16.0654271787        7.1239264156  MEMB      13              0.0000000000
      2545        65  POPC      C210           14.5894374101       14.2276283227        6.8839389246  MEMB      13              0.0000000000
      2546        65  POPC      H101           13.6062446426       14.7004072136        7.0372676248  MEMB      13              0.0000000000
      2547        65  POPC      C211           14.5783685238       12.7334984176        6.6869604776  MEMB      13              0.0000000000
      2548        65  POPC      H11R           14.7232743860       12.2609157206        7.6851554448  MEMB      13              0.0000000000
      2549        65  POPC      H11S           15.4405617893       12.4132006663        6.0630362482  MEMB      13              0.0000000000
      2550        65  POPC      C212           13.3040604364       12.1133399106        6.0706539286  MEMB      13              0.0000000000
      2551        65  POPC      H12R           12.4002692791       12.6850846585        6.3701923283  MEMB      13              0.0000000000
      2552        65  POPC      H12S           13.1992340723       11.0861041002        6.4941209949  MEMB      13              0.0000000000
      2553        65  POPC      C213           13.3675964297       11.9554013759        4.5405211473  MEMB      13              0.0000000000
      2554        65  POPC      H13R           14.2609453246       11.3424444624        4.2894263018  MEMB      13              0.0000000000
      2555        65  POPC      H13S           13.5071937090       12.9513212364        4.0674283734  MEMB      13              0.0000000000
      2556        65  POPC      C214           12.1191765479       11.2701002812        3.9562466827  MEMB      13              0.0000000000
      2557        65  POPC      H14R           11.2485610841       11.9462067237        4.1171801185  MEMB      13              0.0000000000
      2558        65  POPC      H14S           11.9191307939       10.3267900550        4.5124409021  MEMB      13              0.0000000000
      2559        65  POPC      C215           12.2307603338       10.9367472496        2.4547888195  MEMB      13              0.0000000000
      2560        65  POPC      H15R           12.6546769520       11.8116336458        1.9134593985  MEMB      13              0.0000000000
      2561        65  POPC      H15S           11.2070443490       10.7537879241        2.0542801681  MEMB      13              0.0000000000
      2562        65  POPC      C216           13.0783971497        9.6831910735        2.1664116098  MEMB      13              0.0000000000
      2563        65  POPC      H16R           12.6644679469        8.8250365889        2.7408199239  MEMB      13              0.0000000000
      2564        65  POPC      H16S           14.1142498926        9.8598159459        2.5278984333  MEMB      13              0.0000000000
      2565        65  POPC      C217           13.1264131519        9.3010659986        0.6763653719  MEMB      13              0.0000000000
      2566        65  POPC      H17R           13.3386271607       10.2150399866        0.0783847714  MEMB      13              0.0000000000
      2567        65  POPC      H17S           12.1221984676        8.9398546775        0.3601181959  MEMB      13              0.0000000000
      2568        65  POPC      C218           14.1857985762        8.2411659004        0.3407436743  MEMB      13              0.0000000000
      2569        65  POPC      H18R           14.1315338057        7.9604889922       -0.7327315498  MEMB      13              0.0000000000
      2570        65  POPC      H18S           14.0459897790        7.3233053899        0.9410549741  MEMB      13              0.0000000000
      2571        65  POPC      H18T           15.2044085337        8.6269534993        0.5558716628  MEMB      13              0.0000000000
      2572        65  POPC      C33            17.5169572521       10.1720999345       11.5033235458  MEMB      13              0.0000000000
      2573        65  POPC      H3X            17.5713694263       11.2624038920       11.2823095568  MEMB      13              0.0000000000
      2574        65  POPC      H3Y            16.4635606704        9.8733698961       11.3164511984  MEMB      13              0.0000000000
      2575        65  POPC      C34            18.4254523275        9.4199284012       10.5099499065  MEMB      13              0.0000000000
      2576        65  POPC      H4X            18.2147036293        8.3289422272       10.5752167230  MEMB      13              0.0000000000
      2577        65  POPC      H4Y            19.4881641061        9.5780292250       10.8047168328  MEMB      13              0.0000000000
      2578        65  POPC      C35            18.2656736086        9.8815313464        9.0474745794  MEMB      13              0.0000000000
      2579        65  POPC      H5X            18.9514663019        9.2872548007        8.4033655889  MEMB      13              0.0000000000
      2580        65  POPC      H5Y            18.5744303755       10.9487335988        8.9695733960  MEMB      13              0.0000000000
      2581        65  POPC      C36            16.8311312758        9.7303427403        8.5217216529  MEMB      13              0.0000000000
      2582        65  POPC      H6X            16.1623045114       10.3984850342        9.1112069856  MEMB      13              0.0000000000
      2583        65  POPC      H6Y            16.4989910888        8.6809713249        8.6753553952  MEMB      13              0.0000000000
      2584        65  POPC      C37            16.6453182770       10.0747293176        7.0367340328  MEMB      13              0.0000000000
      2585        65  POPC      H7X            17.1470437426       11.0355824229        6.7952370506  MEMB      13              0.0000000000
      2586        65  POPC      H7Y            15.5527106780       10.1948679730        6.8558457514  MEMB      13              0.0000000000
      2587        65  POPC      C38            17.1427804565        8.9887827058        6.0811578698  MEMB      13              0.0000000000
      2588        65  POPC      H8X            16.8320727634        7.9955173219        6.4803011345  MEMB      13              0.0000000000
      2589        65  POPC      H8Y            18.2531595136        9.0227914185        6.0703248300  MEMB      13              0.0000000000
      2590        65  POPC      C39            16.5861697509        9.1197381783        4.6502137355  MEMB      13              0.0000000000
      2591        65  POPC      H9X            15.4753174802        9.0391733539        4.7129189491  MEMB      13              0.0000000000
      2592        65  POPC      H9Y            16.9335454766        8.2752790579        4.0183625271  MEMB      13              0.0000000000
      2593        65  POPC      C310           16.9216947922       10.4511617238        3.9603435808  MEMB      13              0.0000000000
      2594        65  POPC      H10X           16.5764680600       11.2669718938        4.6302239950  MEMB      13              0.0000000000
      2595        65  POPC      H10Y           16.3318597914       10.5356379126        3.0209940943  MEMB      13              0.0000000000
      2596        65  POPC      C311           18.4041659334       10.6948786244        3.6257090993  MEMB      13              0.0000000000
      2597        65  POPC      H11X           18.6161550803       10.2893961994        2.6104111877  MEMB      13              0.0000000000
      2598        65  POPC      H11Y           19.0503720700       10.1423362298        4.3429474015  MEMB      13              0.0000000000
      2599        65  POPC      C312           18.7903915820       12.1894157714        3.6929326085  MEMB      13              0.0000000000
      2600        65  POPC      H12X           19.8085785888       12.3201916702        3.2709140091  MEMB      13              0.0000000000
      2601        65  POPC      H12Y           18.8177756363       12.4908935989        4.7637460067  MEMB      13              0.0000000000
      2602        65  POPC      C313           17.8266580432       13.1291786352        2.9526999883  MEMB      13              0.0000000000
      2603        65  POPC      H13X           16.7816456066       12.9165392213        3.2637386216  MEMB      13              0.0000000000
      2604        65  POPC      H13Y           17.9227180563       12.9190678475        1.8676559869  MEMB      13              0.0000000000
      2605        65  POPC      C314           18.0458981167       14.6316181849        3.1830307211  MEMB      13              0.0000000000
      2606        65  POPC      H14X           19.0624095130       14.9059757468        2.8257361084  MEMB      13              0.0000000000
      2607        65  POPC      H14Y           18.0238242532       14.8708324347        4.2625411053  MEMB      13              0.0000000000
      2608        65  POPC      C315           16.9908318532       15.4958475972        2.4635344734  MEMB      13              0.0000000000
      2609        65  POPC      H15X           16.6009627149       14.9670643896        1.5653927855  MEMB      13              0.0000000000
      2610        65  POPC      H15Y           17.4889975212       16.4197140976        2.0923512676  MEMB      13              0.0000000000
      2611        65  POPC      C316           15.8229466925       15.9227434095        3.3510887528  MEMB      13              0.0000000000
      2612        65  POPC      H16X           15.2455613582       16.7264774670        2.8437487062  MEMB      13              0.0000000000
      2613        65  POPC      H16Y           16.2017613981       16.3195178689        4.3189105484  MEMB      13              0.0000000000
      2614        65  POPC      H16Z           15.1393634456       15.0745640803        3.5652999086  MEMB      13              0.0000000000
      2615        66  POPC      N             -14.4953613258       -0.4913201164       20.9142298924  MEMB      14              0.0000000000
      2616        66  POPC      C12           -13.9083006613       -0.2126375333       19.5230694607  MEMB      14              0.0000000000
      2617        66  POPC      H12A          -14.5529067834       -0.7172743338       18.7918979708  MEMB      14              0.0000000000
      2618        66  POPC      H12B          -12.9245836065       -0.6503812720       19.4390700900  MEMB      14              0.0000000000
      2619        66  POPC      C13           -14.4174584540       -1.9741768698       21.1012336684  MEMB      14              0.0000000000
      2620        66  POPC      H13A          -13.4287431612       -2.3119420627       20.7917750700  MEMB      14              0.0000000000
      2621        66  POPC      H13B          -14.5661982012       -2.2974757215       22.1220119455  MEMB      14              0.0000000000
      2622        66  POPC      H13C          -15.1463298090       -2.4644428222       20.4523596072  MEMB      14              0.0000000000
      2623        66  POPC      C14           -13.7484322512        0.2507298669       21.9793953795  MEMB      14              0.0000000000
      2624        66  POPC      H14A          -14.1829030508        0.1082619634       22.9660335331  MEMB      14              0.0000000000
      2625        66  POPC      H14B          -12.7152749682       -0.0644081668       22.0517513881  MEMB      14              0.0000000000
      2626        66  POPC      H14C          -13.7248191563        1.3181812103       21.7510549104  MEMB      14              0.0000000000
      2627        66  POPC      C15           -15.9123041942       -0.0078155778       20.8961156815  MEMB      14              0.0000000000
      2628        66  POPC      H15A          -16.4663829211       -0.4899206316       20.0859619538  MEMB      14              0.0000000000
      2629        66  POPC      H15B          -15.9064509054        1.0458999161       20.5942700924  MEMB      14              0.0000000000
      2630        66  POPC      H15C          -16.4374550748       -0.0715416863       21.8278568413  MEMB      14              0.0000000000
      2631        66  POPC      C11           -13.8690215625        1.2441727341       19.0077984139  MEMB      14              0.0000000000
      2632        66  POPC      H11A          -13.2098762249        1.3123125457       18.1059520590  MEMB      14              0.0000000000
      2633        66  POPC      H11B          -13.4217254706        1.9204677309       19.7671063095  MEMB      14              0.0000000000
      2634        66  POPC      P             -15.9415137075        1.1169494920       17.4131279195  MEMB      14              0.0000000000
      2635        66  POPC      O13           -14.9853236363        0.9567673123       16.2992645197  MEMB      14              0.0000000000
      2636        66  POPC      O14           -17.1678067170        1.9131781687       17.2021482927  MEMB      14              0.0000000000
      2637        66  POPC      O12           -15.1862840308        1.6879009938       18.7003384180  MEMB      14              0.0000000000
      2638        66  POPC      O11           -16.3134182743       -0.3138920150       17.9714063921  MEMB      14              0.0000000000
      2639        66  POPC      C1            -17.6284072625       -0.8676436617       17.9623245097  MEMB      14              0.0000000000
      2640        66  POPC      HA            -18.4016981689       -0.1072242068       18.2124767810  MEMB      14              0.0000000000
      2641        66  POPC      HB            -17.6640135223       -1.6254574219       18.7773095855  MEMB      14              0.0000000000
      2642        66  POPC      C2            -18.0215607340       -1.6469677402       16.6614015466  MEMB      14              0.0000000000
      2643        66  POPC      HS            -18.6232589692       -2.5311274792       16.9684987611  MEMB      14              0.0000000000
      2644        66  POPC      O21           -16.8300143069       -2.0880929879       15.9967926981  MEMB      14              0.0000000000
      2645        66  POPC      C21           -16.9152926654       -2.6889853698       14.8350361204  MEMB      14              0.0000000000
      2646        66  POPC      O22           -17.9316703111       -3.1054224330       14.2980028493  MEMB      14              0.0000000000
      2647        66  POPC      C22           -15.4829395279       -2.7226837981       14.2844143901  MEMB      14              0.0000000000
      2648        66  POPC      H2R           -14.8022214156       -2.9295365944       15.1415362963  MEMB      14              0.0000000000
      2649        66  POPC      H2S           -15.2501579269       -1.7083962168       13.9025842362  MEMB      14              0.0000000000
      2650        66  POPC      C3            -18.9170927055       -0.7654013327       15.7208885189  MEMB      14              0.0000000000
      2651        66  POPC      HX            -19.6687883859       -0.2762262364       16.3818199735  MEMB      14              0.0000000000
      2652        66  POPC      HY            -19.4704240105       -1.4388115760       15.0341093570  MEMB      14              0.0000000000
      2653        66  POPC      O31           -18.1667817149        0.1821266151       14.9388907890  MEMB      14              0.0000000000
      2654        66  POPC      C31           -18.6984890072        1.3835101316       14.7679471540  MEMB      14              0.0000000000
      2655        66  POPC      O32           -19.7885371565        1.7667167431       15.1494546513  MEMB      14              0.0000000000
      2656        66  POPC      C32           -17.7693519563        2.1883201522       13.8539836308  MEMB      14              0.0000000000
      2657        66  POPC      H2X           -16.7329658892        1.8116530186       13.9881830998  MEMB      14              0.0000000000
      2658        66  POPC      H2Y           -17.8028531323        3.2384368926       14.2031999420  MEMB      14              0.0000000000
      2659        66  POPC      C23           -15.2087942826       -3.7829515842       13.2031217382  MEMB      14              0.0000000000
      2660        66  POPC      H3R           -15.4364311468       -4.7957661126       13.6058081742  MEMB      14              0.0000000000
      2661        66  POPC      H3S           -14.1166989197       -3.7444219447       12.9771435301  MEMB      14              0.0000000000
      2662        66  POPC      C24           -15.9772177645       -3.5364497080       11.9047417346  MEMB      14              0.0000000000
      2663        66  POPC      H4R           -15.8350838549       -2.4843600997       11.5715280536  MEMB      14              0.0000000000
      2664        66  POPC      H4S           -17.0627319485       -3.6827549365       12.0948000661  MEMB      14              0.0000000000
      2665        66  POPC      C25           -15.5129894074       -4.4932822138       10.8077955116  MEMB      14              0.0000000000
      2666        66  POPC      H5R           -15.5093508983       -5.5290195147       11.2021491596  MEMB      14              0.0000000000
      2667        66  POPC      H5S           -14.4746956895       -4.2213136323       10.5086851498  MEMB      14              0.0000000000
      2668        66  POPC      C26           -16.4119669156       -4.5355323497        9.5794334960  MEMB      14              0.0000000000
      2669        66  POPC      H6R           -15.9013707258       -5.1750885327        8.8241608058  MEMB      14              0.0000000000
      2670        66  POPC      H6S           -16.5106172160       -3.5071898012        9.1696802451  MEMB      14              0.0000000000
      2671        66  POPC      C27           -17.7977247762       -5.1353469818        9.8522792727  MEMB      14              0.0000000000
      2672        66  POPC      H7R           -18.2964743196       -4.5487137472       10.6548890873  MEMB      14              0.0000000000
      2673        66  POPC      H7S           -17.6924708914       -6.1756317056       10.2343931351  MEMB      14              0.0000000000
      2674        66  POPC      C28           -18.7093006532       -5.0812300864        8.6155084532  MEMB      14              0.0000000000
      2675        66  POPC      H8R           -18.5186454726       -4.1268444597        8.0782764873  MEMB      14              0.0000000000
      2676        66  POPC      H8S           -19.7602570383       -5.0159756756        8.9639412409  MEMB      14              0.0000000000
      2677        66  POPC      C29           -18.5707859233       -6.2823582530        7.7169496862  MEMB      14              0.0000000000
      2678        66  POPC      H91           -18.8701772361       -7.2392673139        8.1686286814  MEMB      14              0.0000000000
      2679        66  POPC      C210          -18.1181369145       -6.2914148555        6.4567758614  MEMB      14              0.0000000000
      2680        66  POPC      H101          -18.1262931865       -7.2325564335        5.8906116719  MEMB      14              0.0000000000
      2681        66  POPC      C211          -17.6483273707       -5.0981011211        5.6803106254  MEMB      14              0.0000000000
      2682        66  POPC      H11R          -18.4259558594       -4.3012024104        5.6590345727  MEMB      14              0.0000000000
      2683        66  POPC      H11S          -17.4777233249       -5.4088333122        4.6288467093  MEMB      14              0.0000000000
      2684        66  POPC      C212          -16.3404561060       -4.5208657768        6.2510166030  MEMB      14              0.0000000000
      2685        66  POPC      H12R          -15.7123731030       -5.3199307363        6.6974436352  MEMB      14              0.0000000000
      2686        66  POPC      H12S          -16.5955991846       -3.8110127716        7.0665247272  MEMB      14              0.0000000000
      2687        66  POPC      C213          -15.4764673749       -3.7627154888        5.2432852056  MEMB      14              0.0000000000
      2688        66  POPC      H13R          -15.2637045487       -4.3575059971        4.3354458564  MEMB      14              0.0000000000
      2689        66  POPC      H13S          -14.5001378532       -3.5493684090        5.7377686514  MEMB      14              0.0000000000
      2690        66  POPC      C214          -16.1241785690       -2.4376013417        4.8639612781  MEMB      14              0.0000000000
      2691        66  POPC      H14R          -15.3248931418       -1.7107770745        4.6567885486  MEMB      14              0.0000000000
      2692        66  POPC      H14S          -16.6893524628       -2.0731770638        5.7471293738  MEMB      14              0.0000000000
      2693        66  POPC      C215          -17.0594135492       -2.5248394836        3.6594177813  MEMB      14              0.0000000000
      2694        66  POPC      H15R          -17.4220462459       -3.5689593525        3.6117951575  MEMB      14              0.0000000000
      2695        66  POPC      H15S          -16.4966390577       -2.3498667196        2.7158969299  MEMB      14              0.0000000000
      2696        66  POPC      C216          -18.2453359410       -1.5525843243        3.7663538615  MEMB      14              0.0000000000
      2697        66  POPC      H16R          -18.0120197361       -0.6495074886        3.1594669226  MEMB      14              0.0000000000
      2698        66  POPC      H16S          -18.3707068071       -1.2168367188        4.8195244743  MEMB      14              0.0000000000
      2699        66  POPC      C217          -19.5828528295       -2.1490490033        3.3129024720  MEMB      14              0.0000000000
      2700        66  POPC      H17R          -20.2389257357       -1.3049474710        3.0085734853  MEMB      14              0.0000000000
      2701        66  POPC      H17S          -20.0784850177       -2.6679227876        4.1642741290  MEMB      14              0.0000000000
      2702        66  POPC      C218          -19.4399870768       -3.1328212626        2.1582358957  MEMB      14              0.0000000000
      2703        66  POPC      H18R          -20.3602262792       -3.2678702838        1.5640183080  MEMB      14              0.0000000000
      2704        66  POPC      H18S          -19.1484801976       -4.1314327009        2.5433701670  MEMB      14              0.0000000000
      2705        66  POPC      H18T          -18.6589962435       -2.7623253262        1.4689333812  MEMB      14              0.0000000000
      2706        66  POPC      C33           -18.2045672740        2.0859211203       12.3748393878  MEMB      14              0.0000000000
      2707        66  POPC      H3X           -19.2793650300        2.3605704685       12.2940217081  MEMB      14              0.0000000000
      2708        66  POPC      H3Y           -18.0932780888        1.0341843032       12.0227838886  MEMB      14              0.0000000000
      2709        66  POPC      C34           -17.4212058695        3.0017007408       11.4314603190  MEMB      14              0.0000000000
      2710        66  POPC      H4X           -16.3643610161        2.6524738100       11.4086490433  MEMB      14              0.0000000000
      2711        66  POPC      H4Y           -17.4277790497        4.0368077884       11.8396495130  MEMB      14              0.0000000000
      2712        66  POPC      C35           -18.0032374610        2.9996446276       10.0105302332  MEMB      14              0.0000000000
      2713        66  POPC      H5X           -19.0513926932        3.3724142497       10.0333601737  MEMB      14              0.0000000000
      2714        66  POPC      H5Y           -18.0352850953        1.9497930346        9.6445098449  MEMB      14              0.0000000000
      2715        66  POPC      C36           -17.1929752810        3.8617960686        9.0352553427  MEMB      14              0.0000000000
      2716        66  POPC      H6X           -16.1111230348        3.6280608205        9.1534652401  MEMB      14              0.0000000000
      2717        66  POPC      H6Y           -17.3285569044        4.9323828021        9.3079558707  MEMB      14              0.0000000000
      2718        66  POPC      C37           -17.5889979239        3.6668692299        7.5616304207  MEMB      14              0.0000000000
      2719        66  POPC      H7X           -16.9856782131        4.3739752413        6.9474073725  MEMB      14              0.0000000000
      2720        66  POPC      H7Y           -18.6594670975        3.9381703320        7.4245472386  MEMB      14              0.0000000000
      2721        66  POPC      C38           -17.3506178503        2.2483030258        7.0121560499  MEMB      14              0.0000000000
      2722        66  POPC      H8X           -17.4445830586        2.2974377314        5.9022996514  MEMB      14              0.0000000000
      2723        66  POPC      H8Y           -18.1362078055        1.5539880354        7.3813213767  MEMB      14              0.0000000000
      2724        66  POPC      C39           -15.9661027227        1.6737339152        7.3576491359  MEMB      14              0.0000000000
      2725        66  POPC      H9X           -15.9325494205        1.3668259169        8.4271166627  MEMB      14              0.0000000000
      2726        66  POPC      H9Y           -15.2205616441        2.4797750471        7.2167083960  MEMB      14              0.0000000000
      2727        66  POPC      C310          -15.6028633328        0.4809588199        6.4638888426  MEMB      14              0.0000000000
      2728        66  POPC      H10X          -15.9154803652        0.7085431634        5.4259456806  MEMB      14              0.0000000000
      2729        66  POPC      H10Y          -16.2151168249       -0.3764149692        6.8188043241  MEMB      14              0.0000000000
      2730        66  POPC      C311          -14.1174228691        0.0729015653        6.4744964420  MEMB      14              0.0000000000
      2731        66  POPC      H11X          -14.0424718166       -1.0369377896        6.4905500982  MEMB      14              0.0000000000
      2732        66  POPC      H11Y          -13.6657639193        0.4462908216        7.4219279338  MEMB      14              0.0000000000
      2733        66  POPC      C312          -13.2688201583        0.5945379499        5.2933475714  MEMB      14              0.0000000000
      2734        66  POPC      H12X          -12.2070161851        0.3728102657        5.5503128413  MEMB      14              0.0000000000
      2735        66  POPC      H12Y          -13.3557397502        1.6933021596        5.2306216548  MEMB      14              0.0000000000
      2736        66  POPC      C313          -13.5082674409       -0.0110953082        3.8898221993  MEMB      14              0.0000000000
      2737        66  POPC      H13X          -13.4749302487       -1.1195447956        3.9371844247  MEMB      14              0.0000000000
      2738        66  POPC      H13Y          -12.6398676650        0.2972999730        3.2631723552  MEMB      14              0.0000000000
      2739        66  POPC      C314          -14.7722694242        0.4595611730        3.1403466575  MEMB      14              0.0000000000
      2740        66  POPC      H14X          -15.0477093629        1.4856928063        3.4528688475  MEMB      14              0.0000000000
      2741        66  POPC      H14Y          -15.6388650818       -0.1788096286        3.4006396800  MEMB      14              0.0000000000
      2742        66  POPC      C315          -14.6030421411        0.4342939841        1.6164420282  MEMB      14              0.0000000000
      2743        66  POPC      H15X          -14.0392681217       -0.4845605305        1.3376705529  MEMB      14              0.0000000000
      2744        66  POPC      H15Y          -13.9873391179        1.3133646364        1.3159756879  MEMB      14              0.0000000000
      2745        66  POPC      C316          -15.9293540537        0.4408509421        0.8540031642  MEMB      14              0.0000000000
      2746        66  POPC      H16X          -16.4998098424        1.3736470588        1.0552104163  MEMB      14              0.0000000000
      2747        66  POPC      H16Y          -16.5595379947       -0.4239668154        1.1537427406  MEMB      14              0.0000000000
      2748        66  POPC      H16Z          -15.7448078842        0.3624440720       -0.2389009781  MEMB      14              0.0000000000
      2749        67  POPC      N             -19.4668614091      -18.0927288667       18.6466246147  MEMB      15              0.0000000000
      2750        67  POPC      C12           -18.2150294304      -18.2648809926       17.7909257830  MEMB      15              0.0000000000
      2751        67  POPC      H12A          -18.5044101888      -18.4548961800       16.7640241515  MEMB      15              0.0000000000
      2752        67  POPC      H12B          -17.6363556362      -19.1228385838       18.1158325362  MEMB      15              0.0000000000
      2753        67  POPC      C13           -19.1020245224      -17.7102231672       20.0474992641  MEMB      15              0.0000000000
      2754        67  POPC      H13A          -18.4498947732      -18.4416847211       20.5057248735  MEMB      15              0.0000000000
      2755        67  POPC      H13B          -18.4911390305      -16.8044035708       20.0106013518  MEMB      15              0.0000000000
      2756        67  POPC      H13C          -19.9595738262      -17.5463062256       20.6858351543  MEMB      15              0.0000000000
      2757        67  POPC      C14           -20.2823750572      -16.9872719413       18.0758488310  MEMB      15              0.0000000000
      2758        67  POPC      H14A          -21.1754893761      -16.8363266765       18.6872119282  MEMB      15              0.0000000000
      2759        67  POPC      H14B          -19.7288098016      -16.0584715564       18.0855332253  MEMB      15              0.0000000000
      2760        67  POPC      H14C          -20.6207184478      -17.1848602285       17.0659851656  MEMB      15              0.0000000000
      2761        67  POPC      C15           -20.3027907047      -19.3206686340       18.6567955101  MEMB      15              0.0000000000
      2762        67  POPC      H15A          -19.8541786099      -20.0960518767       19.2626576905  MEMB      15              0.0000000000
      2763        67  POPC      H15B          -20.4293334401      -19.7294805807       17.6570569443  MEMB      15              0.0000000000
      2764        67  POPC      H15C          -21.2886863985      -19.1013353198       19.0635730070  MEMB      15              0.0000000000
      2765        67  POPC      C11           -17.2490321133      -17.0653211663       17.7886390559  MEMB      15              0.0000000000
      2766        67  POPC      H11A          -17.8257526832      -16.1251808349       17.6577031919  MEMB      15              0.0000000000
      2767        67  POPC      H11B          -16.5530901061      -17.1672518432       16.9201112372  MEMB      15              0.0000000000
      2768        67  POPC      P             -15.3714895901      -15.9879449118       19.2300974773  MEMB      15              0.0000000000
      2769        67  POPC      O13           -14.4462996868      -16.5754737588       20.2228932945  MEMB      15              0.0000000000
      2770        67  POPC      O14           -16.0366166589      -14.7161766399       19.6157117492  MEMB      15              0.0000000000
      2771        67  POPC      O12           -16.5408235613      -17.0412978379       19.0191559812  MEMB      15              0.0000000000
      2772        67  POPC      O11           -14.6463999260      -15.8410480468       17.8294547552  MEMB      15              0.0000000000
      2773        67  POPC      C1            -14.3926313303      -14.5630906489       17.2421034608  MEMB      15              0.0000000000
      2774        67  POPC      HA            -13.2930786656      -14.4007034846       17.2096838328  MEMB      15              0.0000000000
      2775        67  POPC      HB            -14.8192368391      -13.7052757666       17.8127857884  MEMB      15              0.0000000000
      2776        67  POPC      C2            -14.9206274637      -14.5273789419       15.7831852215  MEMB      15              0.0000000000
      2777        67  POPC      HS            -14.7148207598      -13.5237510579       15.3445333176  MEMB      15              0.0000000000
      2778        67  POPC      O21           -16.3214060604      -14.8050583773       15.6920027179  MEMB      15              0.0000000000
      2779        67  POPC      C21           -17.1790755980      -13.9690922427       16.2354581650  MEMB      15              0.0000000000
      2780        67  POPC      O22           -16.9407019027      -13.0293335066       16.9682265488  MEMB      15              0.0000000000
      2781        67  POPC      C22           -18.5524351554      -14.2356820725       15.6059437434  MEMB      15              0.0000000000
      2782        67  POPC      H2R           -19.1029876876      -13.2724623740       15.6225776210  MEMB      15              0.0000000000
      2783        67  POPC      H2S           -19.1175879719      -14.9776789901       16.1980342774  MEMB      15              0.0000000000
      2784        67  POPC      C3            -14.1696634279      -15.5792040788       14.9224295274  MEMB      15              0.0000000000
      2785        67  POPC      HX            -14.4044634095      -16.5951118065       15.3148676453  MEMB      15              0.0000000000
      2786        67  POPC      HY            -13.0794390551      -15.4227293746       15.0905851546  MEMB      15              0.0000000000
      2787        67  POPC      O31           -14.4531930729      -15.4321257200       13.5129583523  MEMB      15              0.0000000000
      2788        67  POPC      C31           -15.3726264820      -16.2484256561       12.9926702443  MEMB      15              0.0000000000
      2789        67  POPC      O32           -16.0269381521      -17.0704782422       13.6110864375  MEMB      15              0.0000000000
      2790        67  POPC      C32           -15.4478502357      -16.0016745381       11.4674242258  MEMB      15              0.0000000000
      2791        67  POPC      H2X           -14.4246451488      -15.7460534570       11.1181073791  MEMB      15              0.0000000000
      2792        67  POPC      H2Y           -16.0983694937      -15.1172764701       11.3142474717  MEMB      15              0.0000000000
      2793        67  POPC      C23           -18.4379503022      -14.7176480953       14.1435610541  MEMB      15              0.0000000000
      2794        67  POPC      H3R           -17.8193684906      -15.6369929805       14.0812890909  MEMB      15              0.0000000000
      2795        67  POPC      H3S           -17.9477105642      -13.9248846468       13.5346418225  MEMB      15              0.0000000000
      2796        67  POPC      C24           -19.7946953612      -15.0656478176       13.5567584269  MEMB      15              0.0000000000
      2797        67  POPC      H4R           -20.4142325163      -14.1419010934       13.6047650196  MEMB      15              0.0000000000
      2798        67  POPC      H4S           -20.2760595865      -15.8531771047       14.1801702513  MEMB      15              0.0000000000
      2799        67  POPC      C25           -19.7171174465      -15.5546346553       12.1085771944  MEMB      15              0.0000000000
      2800        67  POPC      H5R           -20.7090807710      -15.9411020946       11.7983021834  MEMB      15              0.0000000000
      2801        67  POPC      H5S           -18.9832357693      -16.3861587024       12.0065635051  MEMB      15              0.0000000000
      2802        67  POPC      C26           -19.3636167879      -14.4218437590       11.1473475699  MEMB      15              0.0000000000
      2803        67  POPC      H6R           -18.3181313877      -14.1010861675       11.3517396064  MEMB      15              0.0000000000
      2804        67  POPC      H6S           -20.0371275822      -13.5571273385       11.3426889447  MEMB      15              0.0000000000
      2805        67  POPC      C27           -19.5061222257      -14.8363928162        9.6781456250  MEMB      15              0.0000000000
      2806        67  POPC      H7R           -20.5093013901      -15.2902505299        9.5172286312  MEMB      15              0.0000000000
      2807        67  POPC      H7S           -18.7689349951      -15.6364334240        9.4672300258  MEMB      15              0.0000000000
      2808        67  POPC      C28           -19.3349508514      -13.6692599907        8.6849319989  MEMB      15              0.0000000000
      2809        67  POPC      H8R           -20.3065008472      -13.1305779208        8.6220070651  MEMB      15              0.0000000000
      2810        67  POPC      H8S           -19.1522082877      -14.1022235481        7.6759444851  MEMB      15              0.0000000000
      2811        67  POPC      C29           -18.2579341364      -12.6915647791        9.0946385786  MEMB      15              0.0000000000
      2812        67  POPC      H91           -18.5741576327      -11.9761712943        9.8688698820  MEMB      15              0.0000000000
      2813        67  POPC      C210          -16.9884971268      -12.6351044866        8.6509684457  MEMB      15              0.0000000000
      2814        67  POPC      H101          -16.3206235461      -11.8633094362        9.0625547078  MEMB      15              0.0000000000
      2815        67  POPC      C211          -16.3556830238      -13.5492093084        7.6328662282  MEMB      15              0.0000000000
      2816        67  POPC      H11R          -16.9982723888      -14.4319297398        7.4590450759  MEMB      15              0.0000000000
      2817        67  POPC      H11S          -15.3949757261      -13.9425563514        8.0351528891  MEMB      15              0.0000000000
      2818        67  POPC      C212          -16.0662325957      -12.9012914471        6.2629424687  MEMB      15              0.0000000000
      2819        67  POPC      H12R          -15.5756176911      -13.6620531523        5.6169818145  MEMB      15              0.0000000000
      2820        67  POPC      H12S          -15.3367581034      -12.0769245378        6.3908288755  MEMB      15              0.0000000000
      2821        67  POPC      C213          -17.3063941903      -12.3735580606        5.5206158195  MEMB      15              0.0000000000
      2822        67  POPC      H13R          -16.9825879129      -11.6288566752        4.7601208655  MEMB      15              0.0000000000
      2823        67  POPC      H13S          -17.9882789207      -11.8490118828        6.2239076082  MEMB      15              0.0000000000
      2824        67  POPC      C214          -18.0515255049      -13.4924497737        4.7861871742  MEMB      15              0.0000000000
      2825        67  POPC      H14R          -18.3522914437      -14.2708663089        5.5203068326  MEMB      15              0.0000000000
      2826        67  POPC      H14S          -17.3504418765      -13.9641884167        4.0618892183  MEMB      15              0.0000000000
      2827        67  POPC      C215          -19.3036873120      -13.0117808348        4.0444235546  MEMB      15              0.0000000000
      2828        67  POPC      H15R          -19.0270338550      -12.2302229086        3.3028750026  MEMB      15              0.0000000000
      2829        67  POPC      H15S          -19.9923772334      -12.5473894394        4.7863628197  MEMB      15              0.0000000000
      2830        67  POPC      C216          -20.0359460711      -14.1623912647        3.3374545785  MEMB      15              0.0000000000
      2831        67  POPC      H16R          -21.0574495995      -13.8213942371        3.0569875241  MEMB      15              0.0000000000
      2832        67  POPC      H16S          -20.1490394997      -15.0112017510        4.0494950397  MEMB      15              0.0000000000
      2833        67  POPC      C217          -19.3215448227      -14.6549361202        2.0714975228  MEMB      15              0.0000000000
      2834        67  POPC      H17R          -18.3078246994      -15.0281351154        2.3427756208  MEMB      15              0.0000000000
      2835        67  POPC      H17S          -19.1831210168      -13.7951370889        1.3771743164  MEMB      15              0.0000000000
      2836        67  POPC      C218          -20.0872129434      -15.7616249138        1.3443558757  MEMB      15              0.0000000000
      2837        67  POPC      H18R          -20.2693899558      -16.6208541017        2.0248254979  MEMB      15              0.0000000000
      2838        67  POPC      H18S          -19.5083007941      -16.1233577018        0.4679332982  MEMB      15              0.0000000000
      2839        67  POPC      H18T          -21.0702331263      -15.3883401955        0.9874414810  MEMB      15              0.0000000000
      2840        67  POPC      C33           -15.9889838519      -17.1911131789       10.6183850963  MEMB      15              0.0000000000
      2841        67  POPC      H3X           -16.9842446294      -17.5021074087       11.0054675438  MEMB      15              0.0000000000
      2842        67  POPC      H3Y           -15.3027706917      -18.0622824406       10.7193400430  MEMB      15              0.0000000000
      2843        67  POPC      C34           -16.1146267231      -16.8360096602        9.1198272456  MEMB      15              0.0000000000
      2844        67  POPC      H4X           -15.1313256337      -16.4540267481        8.7699585438  MEMB      15              0.0000000000
      2845        67  POPC      H4Y           -16.8333774457      -16.0039605116        8.9961563864  MEMB      15              0.0000000000
      2846        67  POPC      C35           -16.5311314208      -18.0044979100        8.2010379560  MEMB      15              0.0000000000
      2847        67  POPC      H5X           -17.6101430418      -18.2400943869        8.3177925816  MEMB      15              0.0000000000
      2848        67  POPC      H5Y           -15.9583274158      -18.9013709395        8.5315009611  MEMB      15              0.0000000000
      2849        67  POPC      C36           -16.1792058222      -17.7645840141        6.7161130529  MEMB      15              0.0000000000
      2850        67  POPC      H6X           -15.9663536876      -18.7351149634        6.2167586927  MEMB      15              0.0000000000
      2851        67  POPC      H6Y           -15.2449909979      -17.1696680864        6.7004215459  MEMB      15              0.0000000000
      2852        67  POPC      C37           -17.2065315606      -16.9792961630        5.8851938235  MEMB      15              0.0000000000
      2853        67  POPC      H7X           -16.7143697162      -16.6152738776        4.9534466305  MEMB      15              0.0000000000
      2854        67  POPC      H7Y           -17.5213244957      -16.0862097748        6.4574183933  MEMB      15              0.0000000000
      2855        67  POPC      C38           -18.4536948906      -17.7773945286        5.5008915577  MEMB      15              0.0000000000
      2856        67  POPC      H8X           -19.2258571784      -17.0761245946        5.1086430848  MEMB      15              0.0000000000
      2857        67  POPC      H8Y           -18.8768745849      -18.2601475609        6.4095041400  MEMB      15              0.0000000000
      2858        67  POPC      C39           -18.1920955409      -18.8413564982        4.4327754868  MEMB      15              0.0000000000
      2859        67  POPC      H9X           -19.1313745062      -19.4277363770        4.3094193578  MEMB      15              0.0000000000
      2860        67  POPC      H9Y           -17.3905829911      -19.5424740733        4.7477606571  MEMB      15              0.0000000000
      2861        67  POPC      C310          -17.7819737461      -18.2836238693        3.0690654865  MEMB      15              0.0000000000
      2862        67  POPC      H10X          -16.7024943002      -18.0130712203        3.0914140417  MEMB      15              0.0000000000
      2863        67  POPC      H10Y          -18.3498272852      -17.3569178223        2.8474285512  MEMB      15              0.0000000000
      2864        67  POPC      C311          -18.0655715716      -19.3318395714        1.9892501089  MEMB      15              0.0000000000
      2865        67  POPC      H11X          -19.1451280742      -19.5883912678        2.0343769843  MEMB      15              0.0000000000
      2866        67  POPC      H11Y          -17.5001237633      -20.2593064679        2.2348794399  MEMB      15              0.0000000000
      2867        67  POPC      C312          -17.6967642416      -18.8924908428        0.5682357524  MEMB      15              0.0000000000
      2868        67  POPC      H12X          -18.3335912851      -18.0385987703        0.2494125644  MEMB      15              0.0000000000
      2869        67  POPC      H12Y          -17.9090298253      -19.7478663079       -0.1136913357  MEMB      15              0.0000000000
      2870        67  POPC      C313          -16.2236451668      -18.4971440481        0.4535290604  MEMB      15              0.0000000000
      2871        67  POPC      H13X          -15.7127422585      -18.8658690831        1.3694648632  MEMB      15              0.0000000000
      2872        67  POPC      H13Y          -16.1161258085      -17.3926374310        0.4314785995  MEMB      15              0.0000000000
      2873        67  POPC      C314          -15.5070533632      -19.1473255808       -0.7303462182  MEMB      15              0.0000000000
      2874        67  POPC      H14X          -16.0553472235      -18.9720988075       -1.6815762327  MEMB      15              0.0000000000
      2875        67  POPC      H14Y          -15.5208548132      -20.2402531637       -0.5201362744  MEMB      15              0.0000000000
      2876        67  POPC      C315          -14.0479492922      -18.6910340674       -0.8585898850  MEMB      15              0.0000000000
      2877        67  POPC      H15X          -13.7665612533      -18.1628525968        0.0768843756  MEMB      15              0.0000000000
      2878        67  POPC      H15Y          -13.9684546457      -17.9324493971       -1.6614165601  MEMB      15              0.0000000000
      2879        67  POPC      C316          -13.0420230770      -19.8203178746       -1.1116849540  MEMB      15              0.0000000000
      2880        67  POPC      H16X          -13.1492491107      -20.2156231848       -2.1411205332  MEMB      15              0.0000000000
      2881        67  POPC      H16Y          -13.1936094938      -20.6605566583       -0.4041001934  MEMB      15              0.0000000000
      2882        67  POPC      H16Z          -12.0063002609      -19.4441965202       -0.9844672796  MEMB      15              0.0000000000
      2883        68  POPC      N               5.8148779987       26.3849542326       20.0665582914  MEMB      16              0.0000000000
      2884        68  POPC      C12             5.4892148516       24.9245013045       19.7530920987  MEMB      16              0.0000000000
      2885        68  POPC      H12A            4.4784588069       24.8332093304       19.3614857447  MEMB      16              0.0000000000
      2886        68  POPC      H12B            5.4744615414       24.3734642332       20.6889547924  MEMB      16              0.0000000000
      2887        68  POPC      C13             7.1165493987       26.4833275328       20.8212601352  MEMB      16              0.0000000000
      2888        68  POPC      H13A            7.3689421551       27.4844216449       21.1248366377  MEMB      16              0.0000000000
      2889        68  POPC      H13B            7.1445385531       25.8197705018       21.6745978214  MEMB      16              0.0000000000
      2890        68  POPC      H13C            7.9206452726       26.1100904511       20.1801195094  MEMB      16              0.0000000000
      2891        68  POPC      C14             6.0234765601       27.1620689264       18.8032008331  MEMB      16              0.0000000000
      2892        68  POPC      H14A            6.8567148258       26.7015301540       18.2518945339  MEMB      16              0.0000000000
      2893        68  POPC      H14B            5.1651353530       27.1478263478       18.1478328876  MEMB      16              0.0000000000
      2894        68  POPC      H14C            6.3285316963       28.1738780042       19.0217621497  MEMB      16              0.0000000000
      2895        68  POPC      C15             4.7185958511       26.9497144982       20.9134401203  MEMB      16              0.0000000000
      2896        68  POPC      H15A            3.7627323784       26.5300369333       20.6105099557  MEMB      16              0.0000000000
      2897        68  POPC      H15B            4.6951629830       28.0242095421       20.8314748110  MEMB      16              0.0000000000
      2898        68  POPC      H15C            4.8441627672       26.7212246895       21.9710963839  MEMB      16              0.0000000000
      2899        68  POPC      C11             6.4450169693       24.1597964780       18.8053036677  MEMB      16              0.0000000000
      2900        68  POPC      H11A            6.3801461174       24.5871051569       17.7756650949  MEMB      16              0.0000000000
      2901        68  POPC      H11B            6.0884593391       23.1035982755       18.7263242689  MEMB      16              0.0000000000
      2902        68  POPC      P               9.0255600460       24.5663520975       18.4869461373  MEMB      16              0.0000000000
      2903        68  POPC      O13             9.3317533794       23.4375504333       17.6042092831  MEMB      16              0.0000000000
      2904        68  POPC      O14            10.0615280093       25.0869966166       19.4040713742  MEMB      16              0.0000000000
      2905        68  POPC      O12             7.7639867820       24.1614801991       19.3416209508  MEMB      16              0.0000000000
      2906        68  POPC      O11             8.4377316196       25.7737431040       17.6104260686  MEMB      16              0.0000000000
      2907        68  POPC      C1              9.1126748383       25.9936898482       16.3615092410  MEMB      16              0.0000000000
      2908        68  POPC      HA              9.2779607443       25.0374054679       15.8022989621  MEMB      16              0.0000000000
      2909        68  POPC      HB             10.1013299054       26.4687262273       16.5576266948  MEMB      16              0.0000000000
      2910        68  POPC      C2              8.3429871801       26.8968249179       15.3582344628  MEMB      16              0.0000000000
      2911        68  POPC      HS              8.1231306042       27.8651064202       15.8623385749  MEMB      16              0.0000000000
      2912        68  POPC      O21             7.1267298492       26.2441086820       14.9449704759  MEMB      16              0.0000000000
      2913        68  POPC      C21             6.3039263631       27.0032628548       14.2473033846  MEMB      16              0.0000000000
      2914        68  POPC      O22             6.4220620451       28.2026075504       14.0674081023  MEMB      16              0.0000000000
      2915        68  POPC      C22             5.1373084082       26.1479934383       13.7565131332  MEMB      16              0.0000000000
      2916        68  POPC      H2R             4.2948129438       26.3079736429       14.4606150818  MEMB      16              0.0000000000
      2917        68  POPC      H2S             5.4323345496       25.0796427090       13.7935287332  MEMB      16              0.0000000000
      2918        68  POPC      C3              9.2712470615       27.1401448107       14.1383607164  MEMB      16              0.0000000000
      2919        68  POPC      HX             10.1802453665       27.6564245383       14.5332530768  MEMB      16              0.0000000000
      2920        68  POPC      HY              8.7877631076       27.8110987459       13.3964639701  MEMB      16              0.0000000000
      2921        68  POPC      O31             9.5753028308       25.8658007423       13.5295905996  MEMB      16              0.0000000000
      2922        68  POPC      C31            10.6973930292       25.8393220075       12.8295770694  MEMB      16              0.0000000000
      2923        68  POPC      O32            11.5235645575       26.7340187246       12.8005664966  MEMB      16              0.0000000000
      2924        68  POPC      C32            10.7132148883       24.5869288360       11.9495421174  MEMB      16              0.0000000000
      2925        68  POPC      H2X            10.6673092794       23.7035327237       12.6177453691  MEMB      16              0.0000000000
      2926        68  POPC      H2Y            11.6835208264       24.5916343217       11.4120618622  MEMB      16              0.0000000000
      2927        68  POPC      C23             4.6835889159       26.5089934769       12.3256816446  MEMB      16              0.0000000000
      2928        68  POPC      H3R             4.4086792574       27.5842601972       12.2554526886  MEMB      16              0.0000000000
      2929        68  POPC      H3S             3.7682679673       25.9158500295       12.0942944596  MEMB      16              0.0000000000
      2930        68  POPC      C24             5.7296493116       26.1918016635       11.2484446935  MEMB      16              0.0000000000
      2931        68  POPC      H4R             6.1550370240       25.1767025002       11.4151118561  MEMB      16              0.0000000000
      2932        68  POPC      H4S             6.5604787160       26.9262879510       11.3252556222  MEMB      16              0.0000000000
      2933        68  POPC      C25             5.0964758111       26.2461315236        9.8505814992  MEMB      16              0.0000000000
      2934        68  POPC      H5R             4.4443459343       27.1431552237        9.7695672016  MEMB      16              0.0000000000
      2935        68  POPC      H5S             4.4452951909       25.3496443560        9.7482709379  MEMB      16              0.0000000000
      2936        68  POPC      C26             6.0959825389       26.2663120513        8.6881732693  MEMB      16              0.0000000000
      2937        68  POPC      H6R             5.5260233894       26.0640844799        7.7513781078  MEMB      16              0.0000000000
      2938        68  POPC      H6S             6.8307152711       25.4534558992        8.8035836238  MEMB      16              0.0000000000
      2939        68  POPC      C27             6.8352026547       27.5984307273        8.5038807483  MEMB      16              0.0000000000
      2940        68  POPC      H7R             6.2630856716       28.4079908984        9.0022825749  MEMB      16              0.0000000000
      2941        68  POPC      H7S             6.8439687807       27.8118702420        7.4096491469  MEMB      16              0.0000000000
      2942        68  POPC      C28             8.2922573192       27.5946642918        8.9976682805  MEMB      16              0.0000000000
      2943        68  POPC      H8R             8.8063104089       26.7294453087        8.5214324183  MEMB      16              0.0000000000
      2944        68  POPC      H8S             8.3243161343       27.4217888047       10.0941393329  MEMB      16              0.0000000000
      2945        68  POPC      C29             8.9500114442       28.9087835107        8.6536003295  MEMB      16              0.0000000000
      2946        68  POPC      H91             8.5940507164       29.7741255702        9.2357771795  MEMB      16              0.0000000000
      2947        68  POPC      C210            9.8934671334       29.0848592972        7.7099931916  MEMB      16              0.0000000000
      2948        68  POPC      H101           10.3090897080       30.0884517724        7.5426329128  MEMB      16              0.0000000000
      2949        68  POPC      C211           10.4584484222       27.9955472222        6.8362596001  MEMB      16              0.0000000000
      2950        68  POPC      H11R           10.6758824334       27.0947699413        7.4540528030  MEMB      16              0.0000000000
      2951        68  POPC      H11S           11.4392683716       28.3118572122        6.4129340570  MEMB      16              0.0000000000
      2952        68  POPC      C212            9.5443590928       27.5709549753        5.6668008231  MEMB      16              0.0000000000
      2953        68  POPC      H12R            9.6509083494       28.3321996062        4.8598808447  MEMB      16              0.0000000000
      2954        68  POPC      H12S            8.4739046121       27.5393594469        5.9592085658  MEMB      16              0.0000000000
      2955        68  POPC      C213            9.9556459419       26.1918984589        5.1263980227  MEMB      16              0.0000000000
      2956        68  POPC      H13R           11.0160366259       26.0683402490        5.4293173150  MEMB      16              0.0000000000
      2957        68  POPC      H13S            9.9195365622       26.1839681963        4.0155017270  MEMB      16              0.0000000000
      2958        68  POPC      C214            9.1407346891       25.0018657785        5.6776931447  MEMB      16              0.0000000000
      2959        68  POPC      H14R            8.3626047731       24.7079412064        4.9448279795  MEMB      16              0.0000000000
      2960        68  POPC      H14S            8.5917773256       25.3406372925        6.5839204690  MEMB      16              0.0000000000
      2961        68  POPC      C215           10.0108047768       23.7847881898        6.0714558031  MEMB      16              0.0000000000
      2962        68  POPC      H15R            9.7769415015       23.4849222392        7.1127514675  MEMB      16              0.0000000000
      2963        68  POPC      H15S           11.0667661091       24.1111402946        6.0866199020  MEMB      16              0.0000000000
      2964        68  POPC      C216            9.9227288315       22.5471853884        5.1548656641  MEMB      16              0.0000000000
      2965        68  POPC      H16R            9.0150923671       21.9485921428        5.3806500791  MEMB      16              0.0000000000
      2966        68  POPC      H16S           10.7989875008       21.8934212762        5.3678281418  MEMB      16              0.0000000000
      2967        68  POPC      C217            9.9061491849       22.9259006210        3.6699873511  MEMB      16              0.0000000000
      2968        68  POPC      H17R           10.5796772388       23.8021873867        3.5399097814  MEMB      16              0.0000000000
      2969        68  POPC      H17S            8.8746056139       23.2425437331        3.4146604501  MEMB      16              0.0000000000
      2970        68  POPC      C218           10.3175548486       21.8340265558        2.6862463081  MEMB      16              0.0000000000
      2971        68  POPC      H18R            9.5398758044       21.0484732120        2.6062414676  MEMB      16              0.0000000000
      2972        68  POPC      H18S           11.2562853760       21.3563020113        3.0141495453  MEMB      16              0.0000000000
      2973        68  POPC      H18T           10.4761684399       22.2796085223        1.6782226907  MEMB      16              0.0000000000
      2974        68  POPC      C33             9.5522503969       24.5665664233       10.9225245262  MEMB      16              0.0000000000
      2975        68  POPC      H3X             9.7430172822       25.3404042678       10.1448295101  MEMB      16              0.0000000000
      2976        68  POPC      H3Y             8.5979485960       24.8374165982       11.4305153993  MEMB      16              0.0000000000
      2977        68  POPC      C34             9.3330307630       23.2057233404       10.2323372270  MEMB      16              0.0000000000
      2978        68  POPC      H4X             9.1902004645       22.4223245377       11.0082944404  MEMB      16              0.0000000000
      2979        68  POPC      H4Y            10.2324465917       22.9451167770        9.6327110287  MEMB      16              0.0000000000
      2980        68  POPC      C35             8.0980650957       23.2551161607        9.3182660133  MEMB      16              0.0000000000
      2981        68  POPC      H5X             8.2760852259       24.0551817676        8.5680921965  MEMB      16              0.0000000000
      2982        68  POPC      H5Y             7.2174268070       23.5488787898        9.9345919630  MEMB      16              0.0000000000
      2983        68  POPC      C36             7.7374956571       21.9628662611        8.5727260099  MEMB      16              0.0000000000
      2984        68  POPC      H6X             7.6888565722       21.1423527927        9.3211758644  MEMB      16              0.0000000000
      2985        68  POPC      H6Y             8.5324474430       21.6995408847        7.8432079387  MEMB      16              0.0000000000
      2986        68  POPC      C37             6.3808552887       22.0689734360        7.8381236116  MEMB      16              0.0000000000
      2987        68  POPC      H7X             5.6110146198       22.3949516591        8.5735838584  MEMB      16              0.0000000000
      2988        68  POPC      H7Y             6.0862668308       21.0639880686        7.4639384040  MEMB      16              0.0000000000
      2989        68  POPC      C38             6.3707087489       23.0422678130        6.6441846972  MEMB      16              0.0000000000
      2990        68  POPC      H8X             7.1490523757       22.7365377463        5.9163933287  MEMB      16              0.0000000000
      2991        68  POPC      H8Y             6.6354476207       24.0566762581        7.0102782032  MEMB      16              0.0000000000
      2992        68  POPC      C39             5.0157398914       23.1246397178        5.9162094888  MEMB      16              0.0000000000
      2993        68  POPC      H9X             4.2266450779       23.2509845602        6.6913852591  MEMB      16              0.0000000000
      2994        68  POPC      H9Y             4.8068372527       22.1722476795        5.3818943458  MEMB      16              0.0000000000
      2995        68  POPC      C310            4.9173853517       24.3196066610        4.9429353061  MEMB      16              0.0000000000
      2996        68  POPC      H10X            5.2967755013       25.2164180924        5.4799316820  MEMB      16              0.0000000000
      2997        68  POPC      H10Y            3.8478947740       24.5072430484        4.6956444033  MEMB      16              0.0000000000
      2998        68  POPC      C311            5.7034590603       24.1501503587        3.6290021740  MEMB      16              0.0000000000
      2999        68  POPC      H11X            5.0730095707       23.6132027292        2.8874623648  MEMB      16              0.0000000000
      3000        68  POPC      H11Y            6.5933266322       23.5161355764        3.8304401867  MEMB      16              0.0000000000
      3001        68  POPC      C312            6.1967312402       25.4796777792        3.0240424572  MEMB      16              0.0000000000
      3002        68  POPC      H12X            6.5116633158       26.1457027374        3.8592525155  MEMB      16              0.0000000000
      3003        68  POPC      H12Y            5.3673986384       25.9684776764        2.4682370654  MEMB      16              0.0000000000
      3004        68  POPC      C313            7.4162692946       25.3127138321        2.1066598944  MEMB      16              0.0000000000
      3005        68  POPC      H13X            7.2278680815       24.5007741174        1.3731473439  MEMB      16              0.0000000000
      3006        68  POPC      H13Y            8.2797442070       25.0160390407        2.7371374887  MEMB      16              0.0000000000
      3007        68  POPC      C314            7.8522085714       26.5721207139        1.3441371456  MEMB      16              0.0000000000
      3008        68  POPC      H14X            7.9293104154       27.4275513347        2.0520361444  MEMB      16              0.0000000000
      3009        68  POPC      H14Y            7.0891761403       26.8276864825        0.5814373861  MEMB      16              0.0000000000
      3010        68  POPC      C315            9.2262382377       26.3439534216        0.6884137361  MEMB      16              0.0000000000
      3011        68  POPC      H15X            9.2220099996       25.3481716288        0.1863428234  MEMB      16              0.0000000000
      3012        68  POPC      H15Y            9.9682564364       26.2959401792        1.5141151299  MEMB      16              0.0000000000
      3013        68  POPC      C316            9.6760284492       27.4077952016       -0.3173908355  MEMB      16              0.0000000000
      3014        68  POPC      H16X            9.5050742711       28.4299081206        0.0783668665  MEMB      16              0.0000000000
      3015        68  POPC      H16Y            9.1262000117       27.2851660423       -1.2731657950  MEMB      16              0.0000000000
      3016        68  POPC      H16Z           10.7551270502       27.3243899727       -0.5506565078  MEMB      16              0.0000000000
      3017        69  POPC      N              14.4990145155       18.3514969088       18.8794104429  MEMB      17              0.0000000000
      3018        69  POPC      C12            14.7965372925       19.6020850744       18.0496173177  MEMB      17              0.0000000000
      3019        69  POPC      H12A           13.8681985999       20.1388696682       17.8531916154  MEMB      17              0.0000000000
      3020        69  POPC      H12B           15.2326080253       19.3230521272       17.1038103051  MEMB      17              0.0000000000
      3021        69  POPC      C13            13.6908423067       17.3624533300       18.1136116786  MEMB      17              0.0000000000
      3022        69  POPC      H13A           12.7626068262       17.8117616724       17.7741816736  MEMB      17              0.0000000000
      3023        69  POPC      H13B           14.2305485759       17.0135973584       17.2444285329  MEMB      17              0.0000000000
      3024        69  POPC      H13C           13.4601269332       16.5059053216       18.7333213057  MEMB      17              0.0000000000
      3025        69  POPC      C14            15.7910094359       17.7771994341       19.3652384239  MEMB      17              0.0000000000
      3026        69  POPC      H14A           16.4706973505       17.5057853955       18.5653100665  MEMB      17              0.0000000000
      3027        69  POPC      H14B           16.3176213468       18.5459359763       19.9380371081  MEMB      17              0.0000000000
      3028        69  POPC      H14C           15.6407154958       16.9423828619       20.0309903659  MEMB      17              0.0000000000
      3029        69  POPC      C15            13.7265588106       18.7496262833       20.0824419051  MEMB      17              0.0000000000
      3030        69  POPC      H15A           13.5892643664       17.9507127502       20.7930302713  MEMB      17              0.0000000000
      3031        69  POPC      H15B           12.7815917940       19.2328315500       19.8380251950  MEMB      17              0.0000000000
      3032        69  POPC      H15C           14.2874591672       19.5446124248       20.5932428745  MEMB      17              0.0000000000
      3033        69  POPC      C11            15.7376333754       20.6810593845       18.6602695309  MEMB      17              0.0000000000
      3034        69  POPC      H11A           15.9429935419       21.4715825612       17.9000167882  MEMB      17              0.0000000000
      3035        69  POPC      H11B           16.7179931745       20.2116125223       18.8679413329  MEMB      17              0.0000000000
      3036        69  POPC      P              13.8881782662       22.1077456700       19.8033170401  MEMB      17              0.0000000000
      3037        69  POPC      O13            14.1232719867       23.5310780022       20.1083581781  MEMB      17              0.0000000000
      3038        69  POPC      O14            12.8902778276       21.3616132343       20.6060655313  MEMB      17              0.0000000000
      3039        69  POPC      O12            15.2230354408       21.2584371421       19.8596628990  MEMB      17              0.0000000000
      3040        69  POPC      O11            13.4377568189       21.9691658851       18.2686551997  MEMB      17              0.0000000000
      3041        69  POPC      C1             12.0604994570       22.2222999856       17.9717396166  MEMB      17              0.0000000000
      3042        69  POPC      HA             11.7076385711       23.1581507308       18.4670736379  MEMB      17              0.0000000000
      3043        69  POPC      HB             11.4246699293       21.3856774928       18.3409882434  MEMB      17              0.0000000000
      3044        69  POPC      C2             11.7484539607       22.3882708892       16.4462205651  MEMB      17              0.0000000000
      3045        69  POPC      HS             10.6666612760       22.1709610371       16.2823900539  MEMB      17              0.0000000000
      3046        69  POPC      O21            12.5469719321       21.5374957647       15.6012287621  MEMB      17              0.0000000000
      3047        69  POPC      C21            12.1347487759       20.2891010544       15.6352421946  MEMB      17              0.0000000000
      3048        69  POPC      O22            11.2545917273       19.8371530740       16.3488413943  MEMB      17              0.0000000000
      3049        69  POPC      C22            12.9043097010       19.4488551629       14.6147080123  MEMB      17              0.0000000000
      3050        69  POPC      H2R            13.1222691222       18.4697509057       15.0882873930  MEMB      17              0.0000000000
      3051        69  POPC      H2S            13.8666796131       19.9382796419       14.3754030222  MEMB      17              0.0000000000
      3052        69  POPC      C3             11.9377677583       23.8677741535       16.0029763139  MEMB      17              0.0000000000
      3053        69  POPC      HX             11.2919484940       24.4908963513       16.6442929969  MEMB      17              0.0000000000
      3054        69  POPC      HY             11.5533319030       23.9750491378       14.9612222720  MEMB      17              0.0000000000
      3055        69  POPC      O31            13.2900554317       24.3154691966       16.1998646255  MEMB      17              0.0000000000
      3056        69  POPC      C31            14.0201862820       24.2578270620       15.1189099062  MEMB      17              0.0000000000
      3057        69  POPC      O32            13.6332589046       24.4141770544       13.9724559256  MEMB      17              0.0000000000
      3058        69  POPC      C32            15.4522700255       23.9132888845       15.5233648164  MEMB      17              0.0000000000
      3059        69  POPC      H2X            15.4576077766       23.4848229501       16.5498273251  MEMB      17              0.0000000000
      3060        69  POPC      H2Y            16.0342660750       24.8497812493       15.5375043765  MEMB      17              0.0000000000
      3061        69  POPC      C23            12.0572874703       19.2247704223       13.3364952220  MEMB      17              0.0000000000
      3062        69  POPC      H3R            11.0495377769       18.8385926689       13.6147780026  MEMB      17              0.0000000000
      3063        69  POPC      H3S            12.5378557107       18.4480017011       12.6972678356  MEMB      17              0.0000000000
      3064        69  POPC      C24            11.8946223978       20.5059787220       12.5010194145  MEMB      17              0.0000000000
      3065        69  POPC      H4R            11.5837774215       21.3493903443       13.1582000928  MEMB      17              0.0000000000
      3066        69  POPC      H4S            11.0847373981       20.3555496327       11.7496275053  MEMB      17              0.0000000000
      3067        69  POPC      C25            13.1796413022       20.8881458769       11.7528775468  MEMB      17              0.0000000000
      3068        69  POPC      H5R            13.3570157587       20.1478197059       10.9426492814  MEMB      17              0.0000000000
      3069        69  POPC      H5S            14.0447779648       20.8399320054       12.4499458939  MEMB      17              0.0000000000
      3070        69  POPC      C26            13.1499713360       22.3029338043       11.1652348652  MEMB      17              0.0000000000
      3071        69  POPC      H6R            13.0515858617       23.0151445734       12.0145752595  MEMB      17              0.0000000000
      3072        69  POPC      H6S            12.2720805109       22.4233232091       10.4965156299  MEMB      17              0.0000000000
      3073        69  POPC      C27            14.4306976298       22.6574534279       10.3957981103  MEMB      17              0.0000000000
      3074        69  POPC      H7R            14.4837233703       22.0327473226        9.4778737409  MEMB      17              0.0000000000
      3075        69  POPC      H7S            15.2941589946       22.3863553536       11.0394164865  MEMB      17              0.0000000000
      3076        69  POPC      C28            14.5454254353       24.1482932374       10.0357833631  MEMB      17              0.0000000000
      3077        69  POPC      H8R            14.3497625387       24.7500933416       10.9536221144  MEMB      17              0.0000000000
      3078        69  POPC      H8S            13.7421797615       24.3907282753        9.3039759026  MEMB      17              0.0000000000
      3079        69  POPC      C29            15.9278808860       24.4498935144        9.5035270253  MEMB      17              0.0000000000
      3080        69  POPC      H91            16.7341176593       24.4068529379       10.2552084103  MEMB      17              0.0000000000
      3081        69  POPC      C210           16.2376374826       24.7491971535        8.2293457781  MEMB      17              0.0000000000
      3082        69  POPC      H101           17.2857246728       24.9482558932        7.9614361267  MEMB      17              0.0000000000
      3083        69  POPC      C211           15.2678651496       24.8456666760        7.0838307901  MEMB      17              0.0000000000
      3084        69  POPC      H11R           15.6899337428       25.4973309654        6.2874808803  MEMB      17              0.0000000000
      3085        69  POPC      H11S           14.3270708008       25.3417848900        7.4155234459  MEMB      17              0.0000000000
      3086        69  POPC      C212           14.8999231577       23.4818497659        6.4687288846  MEMB      17              0.0000000000
      3087        69  POPC      H12R           14.5328189848       22.8050704623        7.2748669172  MEMB      17              0.0000000000
      3088        69  POPC      H12S           15.7852409658       23.0006388217        6.0014452308  MEMB      17              0.0000000000
      3089        69  POPC      C213           13.7759059865       23.6344103029        5.4348367192  MEMB      17              0.0000000000
      3090        69  POPC      H13R           13.0398371434       24.3203344499        5.9032939173  MEMB      17              0.0000000000
      3091        69  POPC      H13S           13.2662831927       22.6637815087        5.2529376612  MEMB      17              0.0000000000
      3092        69  POPC      C214           14.2343565075       24.2273514044        4.0940755072  MEMB      17              0.0000000000
      3093        69  POPC      H14R           14.4208506049       23.4095800033        3.3648105612  MEMB      17              0.0000000000
      3094        69  POPC      H14S           15.1895728349       24.7637092476        4.2564223112  MEMB      17              0.0000000000
      3095        69  POPC      C215           13.2589727116       25.2578853339        3.5163172359  MEMB      17              0.0000000000
      3096        69  POPC      H15R           13.7436724645       26.2550447699        3.4470694877  MEMB      17              0.0000000000
      3097        69  POPC      H15S           12.4085845292       25.3620409358        4.2159557952  MEMB      17              0.0000000000
      3098        69  POPC      C216           12.6770666104       24.8752308508        2.1575910041  MEMB      17              0.0000000000
      3099        69  POPC      H16R           11.7338179074       25.4481167208        2.0317948102  MEMB      17              0.0000000000
      3100        69  POPC      H16S           12.4175421280       23.7948324889        2.1426314512  MEMB      17              0.0000000000
      3101        69  POPC      C217           13.5774184596       25.2070285630        0.9705960977  MEMB      17              0.0000000000
      3102        69  POPC      H17R           14.4584568917       24.5293607161        0.9756603362  MEMB      17              0.0000000000
      3103        69  POPC      H17S           13.9466917612       26.2543475649        1.0614746963  MEMB      17              0.0000000000
      3104        69  POPC      C218           12.8140371851       25.0523484990       -0.3370095670  MEMB      17              0.0000000000
      3105        69  POPC      H18R           13.4666405573       25.2354415723       -1.2173599495  MEMB      17              0.0000000000
      3106        69  POPC      H18S           11.9786072816       25.7761436892       -0.3697925115  MEMB      17              0.0000000000
      3107        69  POPC      H18T           12.3681380011       24.0407968622       -0.4103161100  MEMB      17              0.0000000000
      3108        69  POPC      C33            16.0313331615       22.8880456484       14.5262080657  MEMB      17              0.0000000000
      3109        69  POPC      H3X            15.9013254939       23.2671882319       13.4850748425  MEMB      17              0.0000000000
      3110        69  POPC      H3Y            15.4346706148       21.9512504062       14.6145248916  MEMB      17              0.0000000000
      3111        69  POPC      C34            17.5109353148       22.5277939747       14.7246695560  MEMB      17              0.0000000000
      3112        69  POPC      H4X            17.7297057731       22.3887104402       15.8061251219  MEMB      17              0.0000000000
      3113        69  POPC      H4Y            18.1442696016       23.3607730127       14.3421501083  MEMB      17              0.0000000000
      3114        69  POPC      C35            17.8968345251       21.2507334654       13.9595210743  MEMB      17              0.0000000000
      3115        69  POPC      H5X            17.3768905182       20.3791525653       14.4185082828  MEMB      17              0.0000000000
      3116        69  POPC      H5Y            18.9926415073       21.0799767665       14.0451323203  MEMB      17              0.0000000000
      3117        69  POPC      C36            17.5066737829       21.3492825604       12.4792854062  MEMB      17              0.0000000000
      3118        69  POPC      H6X            17.8426704128       22.3377561118       12.0911510280  MEMB      17              0.0000000000
      3119        69  POPC      H6Y            16.3989806257       21.3034941531       12.4030900456  MEMB      17              0.0000000000
      3120        69  POPC      C37            18.0888105994       20.2459283141       11.5966883552  MEMB      17              0.0000000000
      3121        69  POPC      H7X            17.7862535574       19.2563495248       11.9980701561  MEMB      17              0.0000000000
      3122        69  POPC      H7Y            19.1964420071       20.3150046839       11.6298966771  MEMB      17              0.0000000000
      3123        69  POPC      C38            17.6265127993       20.3506662958       10.1397351080  MEMB      17              0.0000000000
      3124        69  POPC      H8X            18.4123184426       19.9240782283        9.4847712182  MEMB      17              0.0000000000
      3125        69  POPC      H8Y            17.5028549255       21.4187622346        9.8532429484  MEMB      17              0.0000000000
      3126        69  POPC      C39            16.3211649267       19.5885214518        9.8934188317  MEMB      17              0.0000000000
      3127        69  POPC      H9X            15.5104477985       20.1108961177       10.4443132803  MEMB      17              0.0000000000
      3128        69  POPC      H9Y            16.3950568702       18.5558693633       10.3035894137  MEMB      17              0.0000000000
      3129        69  POPC      C310           15.9581064690       19.5051977722        8.4085006777  MEMB      17              0.0000000000
      3130        69  POPC      H10X           16.6323312740       18.7688691629        7.9149206595  MEMB      17              0.0000000000
      3131        69  POPC      H10Y           16.1327864708       20.4993843685        7.9385187963  MEMB      17              0.0000000000
      3132        69  POPC      C311           14.4917136739       19.1098986021        8.1913152077  MEMB      17              0.0000000000
      3133        69  POPC      H11X           13.8398960501       19.9613944921        8.4900405837  MEMB      17              0.0000000000
      3134        69  POPC      H11Y           14.2505018128       18.2488557003        8.8568749773  MEMB      17              0.0000000000
      3135        69  POPC      C312           14.1725995435       18.7066404572        6.7475740892  MEMB      17              0.0000000000
      3136        69  POPC      H12X           13.0896759807       18.4715419357        6.6719873996  MEMB      17              0.0000000000
      3137        69  POPC      H12Y           14.7297392375       17.7754342051        6.5112806951  MEMB      17              0.0000000000
      3138        69  POPC      C313           14.5306310820       19.7509741585        5.6816780548  MEMB      17              0.0000000000
      3139        69  POPC      H13X           15.5808901292       20.0885911657        5.8252164312  MEMB      17              0.0000000000
      3140        69  POPC      H13Y           13.8668029117       20.6355293565        5.7759093477  MEMB      17              0.0000000000
      3141        69  POPC      C314           14.4196003470       19.1371960132        4.2818274101  MEMB      17              0.0000000000
      3142        69  POPC      H14X           13.3671219120       18.8428504673        4.0697012940  MEMB      17              0.0000000000
      3143        69  POPC      H14Y           15.0250245325       18.2085675576        4.3130085050  MEMB      17              0.0000000000
      3144        69  POPC      C315           14.9696807299       20.0154249585        3.1540173613  MEMB      17              0.0000000000
      3145        69  POPC      H15X           15.6226538023       19.3927432493        2.5003475883  MEMB      17              0.0000000000
      3146        69  POPC      H15Y           15.6054458611       20.8217374682        3.5859093835  MEMB      17              0.0000000000
      3147        69  POPC      C316           13.8659228295       20.6331344462        2.3010769524  MEMB      17              0.0000000000
      3148        69  POPC      H16X           13.2141363988       21.2408662313        2.9584213814  MEMB      17              0.0000000000
      3149        69  POPC      H16Y           13.2544050541       19.8428750362        1.8136007695  MEMB      17              0.0000000000
      3150        69  POPC      H16Z           14.2856472301       21.2968578381        1.5165648735  MEMB      17              0.0000000000
      3151        70  POPC      N             -14.3150997844       13.4356643355       19.5191541684  MEMB      18              0.0000000000
      3152        70  POPC      C12           -15.7657281592       13.7692292030       19.8894710224  MEMB      18              0.0000000000
      3153        70  POPC      H12A          -15.7540031389       14.5401810971       20.6551419989  MEMB      18              0.0000000000
      3154        70  POPC      H12B          -16.2408616900       12.9049978023       20.3317845531  MEMB      18              0.0000000000
      3155        70  POPC      C13           -13.6402978707       14.6966224113       19.0844138890  MEMB      18              0.0000000000
      3156        70  POPC      H13A          -14.2465144558       15.1869855903       18.3172238925  MEMB      18              0.0000000000
      3157        70  POPC      H13B          -13.6041734154       15.4266098390       19.8943117393  MEMB      18              0.0000000000
      3158        70  POPC      H13C          -12.6393304281       14.5564765388       18.7155137812  MEMB      18              0.0000000000
      3159        70  POPC      C14           -13.6150993281       12.9340495798       20.7428871367  MEMB      18              0.0000000000
      3160        70  POPC      H14A          -14.0934069871       12.0423789465       21.1208228839  MEMB      18              0.0000000000
      3161        70  POPC      H14B          -12.5734573987       12.7177952193       20.5652329988  MEMB      18              0.0000000000
      3162        70  POPC      H14C          -13.6051598938       13.6884157056       21.5318689516  MEMB      18              0.0000000000
      3163        70  POPC      C15           -14.2054778202       12.4206759018       18.4164702073  MEMB      18              0.0000000000
      3164        70  POPC      H15A          -14.6563421854       11.4666990745       18.6722397699  MEMB      18              0.0000000000
      3165        70  POPC      H15B          -13.1555611644       12.2371382696       18.1973594840  MEMB      18              0.0000000000
      3166        70  POPC      H15C          -14.6798554925       12.8042868469       17.5157582550  MEMB      18              0.0000000000
      3167        70  POPC      C11           -16.7036068243       14.3518143041       18.8069112422  MEMB      18              0.0000000000
      3168        70  POPC      H11A          -17.7257280918       14.4670120795       19.2474073729  MEMB      18              0.0000000000
      3169        70  POPC      H11B          -16.7997617107       13.6359404383       17.9664209514  MEMB      18              0.0000000000
      3170        70  POPC      P             -16.7592440930       17.0119339582       18.6166738719  MEMB      18              0.0000000000
      3171        70  POPC      O13           -15.6355504607       17.9375189730       18.9162813415  MEMB      18              0.0000000000
      3172        70  POPC      O14           -17.8711240447       16.9298072956       19.5983063570  MEMB      18              0.0000000000
      3173        70  POPC      O12           -16.1807527516       15.5748108605       18.3151389044  MEMB      18              0.0000000000
      3174        70  POPC      O11           -17.4193449002       17.3670766993       17.2226530785  MEMB      18              0.0000000000
      3175        70  POPC      C1            -18.6391374758       16.7063157267       16.8539845378  MEMB      18              0.0000000000
      3176        70  POPC      HA            -19.4910165366       17.3505493480       17.1422504193  MEMB      18              0.0000000000
      3177        70  POPC      HB            -18.7901619457       15.7203698937       17.3539314853  MEMB      18              0.0000000000
      3178        70  POPC      C2            -18.7075288699       16.5153761783       15.3215174877  MEMB      18              0.0000000000
      3179        70  POPC      HS            -19.6946698529       16.0828091182       15.0405316423  MEMB      18              0.0000000000
      3180        70  POPC      O21           -17.6555659133       15.6716933768       14.8425256070  MEMB      18              0.0000000000
      3181        70  POPC      C21           -17.6162900003       14.4430762045       15.2907658478  MEMB      18              0.0000000000
      3182        70  POPC      O22           -18.5414603523       13.8231982200       15.7969757016  MEMB      18              0.0000000000
      3183        70  POPC      C22           -16.1964415369       13.9047883993       15.0945867575  MEMB      18              0.0000000000
      3184        70  POPC      H2R           -16.2109778926       12.8188728788       15.3098613613  MEMB      18              0.0000000000
      3185        70  POPC      H2S           -15.5633674585       14.4227797163       15.8468865049  MEMB      18              0.0000000000
      3186        70  POPC      C3            -18.5767892042       17.8900609159       14.6256289377  MEMB      18              0.0000000000
      3187        70  POPC      HX            -17.6739588870       18.4178250767       15.0137625602  MEMB      18              0.0000000000
      3188        70  POPC      HY            -19.4611073356       18.5027230975       14.8997226761  MEMB      18              0.0000000000
      3189        70  POPC      O31           -18.5574284849       17.6973058968       13.2064326721  MEMB      18              0.0000000000
      3190        70  POPC      C31           -17.3565592232       17.6575710446       12.6354556731  MEMB      18              0.0000000000
      3191        70  POPC      O32           -16.3283884451       18.1126902286       13.0940892082  MEMB      18              0.0000000000
      3192        70  POPC      C32           -17.4748514668       16.9278815047       11.2991228620  MEMB      18              0.0000000000
      3193        70  POPC      H2X           -17.2195057675       15.8627479737       11.4756404409  MEMB      18              0.0000000000
      3194        70  POPC      H2Y           -16.7162501792       17.3648308368       10.6181526334  MEMB      18              0.0000000000
      3195        70  POPC      C23           -15.6399068823       14.1657379851       13.6754004386  MEMB      18              0.0000000000
      3196        70  POPC      H3R           -15.6649069357       15.2565534004       13.4472459034  MEMB      18              0.0000000000
      3197        70  POPC      H3S           -16.2835047403       13.6495270579       12.9279832388  MEMB      18              0.0000000000
      3198        70  POPC      C24           -14.1956292040       13.6796352093       13.5039710822  MEMB      18              0.0000000000
      3199        70  POPC      H4R           -14.1349083917       12.6256981909       13.8440258820  MEMB      18              0.0000000000
      3200        70  POPC      H4S           -13.5288400529       14.2870379151       14.1563914354  MEMB      18              0.0000000000
      3201        70  POPC      C25           -13.7025803535       13.7477971472       12.0481955670  MEMB      18              0.0000000000
      3202        70  POPC      H5R           -14.4181996464       13.2181272806       11.3808420895  MEMB      18              0.0000000000
      3203        70  POPC      H5S           -12.7279689694       13.2119048481       11.9832664395  MEMB      18              0.0000000000
      3204        70  POPC      C26           -13.5036506220       15.1855622759       11.5484077495  MEMB      18              0.0000000000
      3205        70  POPC      H6R           -12.9528227655       15.7551830417       12.3333874175  MEMB      18              0.0000000000
      3206        70  POPC      H6S           -14.4895023874       15.6822248692       11.4165243774  MEMB      18              0.0000000000
      3207        70  POPC      C27           -12.6869137378       15.3000883152       10.2468564651  MEMB      18              0.0000000000
      3208        70  POPC      H7R           -11.6668793459       14.8950865033       10.4406585927  MEMB      18              0.0000000000
      3209        70  POPC      H7S           -12.5594083296       16.3788369999       10.0100475016  MEMB      18              0.0000000000
      3210        70  POPC      C28           -13.2612435390       14.5678613655        9.0146710105  MEMB      18              0.0000000000
      3211        70  POPC      H8R           -13.0873994321       13.4792087728        9.1641917599  MEMB      18              0.0000000000
      3212        70  POPC      H8S           -12.6474478105       14.8531192660        8.1298605637  MEMB      18              0.0000000000
      3213        70  POPC      C29           -14.7239695907       14.7907072929        8.7175891630  MEMB      18              0.0000000000
      3214        70  POPC      H91           -15.3578494291       13.9065835658        8.8942802774  MEMB      18              0.0000000000
      3215        70  POPC      C210          -15.3174088642       15.9154704719        8.2741865065  MEMB      18              0.0000000000
      3216        70  POPC      H101          -16.4029952771       15.8864456132        8.0977308452  MEMB      18              0.0000000000
      3217        70  POPC      C211          -14.6828401653       17.2484005488        7.9599146710  MEMB      18              0.0000000000
      3218        70  POPC      H11R          -13.6485619472       17.3139540251        8.3659550811  MEMB      18              0.0000000000
      3219        70  POPC      H11S          -15.2677550549       18.0565494263        8.4536422715  MEMB      18              0.0000000000
      3220        70  POPC      C212          -14.6031249021       17.5657195935        6.4507885519  MEMB      18              0.0000000000
      3221        70  POPC      H12R          -13.8454975443       16.8991428929        5.9885888673  MEMB      18              0.0000000000
      3222        70  POPC      H12S          -14.2385332206       18.6076619829        6.3330305550  MEMB      18              0.0000000000
      3223        70  POPC      C213          -15.9271979376       17.4419403176        5.6826789354  MEMB      18              0.0000000000
      3224        70  POPC      H13R          -16.7329706509       17.9744327062        6.2338069558  MEMB      18              0.0000000000
      3225        70  POPC      H13S          -16.2149783900       16.3683509959        5.6283567080  MEMB      18              0.0000000000
      3226        70  POPC      C214          -15.8603024768       17.9966567508        4.2495578264  MEMB      18              0.0000000000
      3227        70  POPC      H14R          -15.0005372476       17.5365136491        3.7126365095  MEMB      18              0.0000000000
      3228        70  POPC      H14S          -15.6917839493       19.0950160287        4.2797796300  MEMB      18              0.0000000000
      3229        70  POPC      C215          -17.1576953583       17.6875742927        3.4913825865  MEMB      18              0.0000000000
      3230        70  POPC      H15R          -18.0078175370       18.1742380160        4.0212635630  MEMB      18              0.0000000000
      3231        70  POPC      H15S          -17.3195067961       16.5883688280        3.5369719879  MEMB      18              0.0000000000
      3232        70  POPC      C216          -17.1743016141       18.1292256167        2.0214903097  MEMB      18              0.0000000000
      3233        70  POPC      H16R          -16.3575554386       17.6244263736        1.4594497380  MEMB      18              0.0000000000
      3234        70  POPC      H16S          -16.9898153285       19.2269569753        1.9788118426  MEMB      18              0.0000000000
      3235        70  POPC      C217          -18.5309284582       17.8303987459        1.3577608797  MEMB      18              0.0000000000
      3236        70  POPC      H17R          -18.5973017398       18.3703894164        0.3885405595  MEMB      18              0.0000000000
      3237        70  POPC      H17S          -19.3179764038       18.2605001902        2.0157370051  MEMB      18              0.0000000000
      3238        70  POPC      C218          -18.8270040613       16.3434869960        1.1108977102  MEMB      18              0.0000000000
      3239        70  POPC      H18R          -18.6123605172       15.7423397841        2.0188694137  MEMB      18              0.0000000000
      3240        70  POPC      H18S          -18.2073133523       15.9528680185        0.2751962980  MEMB      18              0.0000000000
      3241        70  POPC      H18T          -19.8986624667       16.2014904545        0.8531799742  MEMB      18              0.0000000000
      3242        70  POPC      C33           -18.8867356881       17.0368542689       10.6845263046  MEMB      18              0.0000000000
      3243        70  POPC      H3X           -19.1974130443       18.1082787339       10.6652551227  MEMB      18              0.0000000000
      3244        70  POPC      H3Y           -19.6278318321       16.4831300178       11.3053602083  MEMB      18              0.0000000000
      3245        70  POPC      C34           -18.9257583559       16.5083992895        9.2536833903  MEMB      18              0.0000000000
      3246        70  POPC      H4X           -18.6624036137       15.4279292567        9.2430446377  MEMB      18              0.0000000000
      3247        70  POPC      H4Y           -18.1550749346       17.0554094471        8.6627325110  MEMB      18              0.0000000000
      3248        70  POPC      C35           -20.2887906854       16.7286101164        8.5952601778  MEMB      18              0.0000000000
      3249        70  POPC      H5X           -20.5976549534       17.7843830143        8.7837267133  MEMB      18              0.0000000000
      3250        70  POPC      H5Y           -21.0620619322       16.0673586074        9.0410177245  MEMB      18              0.0000000000
      3251        70  POPC      C36           -20.2145686031       16.5257431301        7.0832321290  MEMB      18              0.0000000000
      3252        70  POPC      H6X           -19.3337767499       17.0952854947        6.7093202462  MEMB      18              0.0000000000
      3253        70  POPC      H6Y           -21.1382668209       16.9208745399        6.6070094318  MEMB      18              0.0000000000
      3254        70  POPC      C37           -20.0456998251       15.0874519069        6.6131109965  MEMB      18              0.0000000000
      3255        70  POPC      H7X           -20.9805780529       14.5324493770        6.8219311338  MEMB      18              0.0000000000
      3256        70  POPC      H7Y           -19.2242213723       14.6087379713        7.1869595796  MEMB      18              0.0000000000
      3257        70  POPC      C38           -19.7165791283       15.0710350956        5.1127383157  MEMB      18              0.0000000000
      3258        70  POPC      H8X           -18.7572961218       15.6181090262        4.9682932429  MEMB      18              0.0000000000
      3259        70  POPC      H8Y           -20.5005064358       15.6343694010        4.5575534843  MEMB      18              0.0000000000
      3260        70  POPC      C39           -19.5906734103       13.6700503342        4.5047290937  MEMB      18              0.0000000000
      3261        70  POPC      H9X           -19.2201116038       13.7593359598        3.4598735922  MEMB      18              0.0000000000
      3262        70  POPC      H9Y           -20.5976200227       13.2038248027        4.4519114802  MEMB      18              0.0000000000
      3263        70  POPC      C310          -18.6963015460       12.7127760088        5.3031471898  MEMB      18              0.0000000000
      3264        70  POPC      H10X          -18.6838110757       11.7377972792        4.7765168184  MEMB      18              0.0000000000
      3265        70  POPC      H10Y          -19.1706632911       12.5428026194        6.2952431232  MEMB      18              0.0000000000
      3266        70  POPC      C311          -17.2509653822       13.1764100677        5.5236352844  MEMB      18              0.0000000000
      3267        70  POPC      H11X          -16.7144259930       12.3971358482        6.1102232917  MEMB      18              0.0000000000
      3268        70  POPC      H11Y          -17.2537652635       14.1089659503        6.1318157618  MEMB      18              0.0000000000
      3269        70  POPC      C312          -16.4753817605       13.4421096381        4.2289136568  MEMB      18              0.0000000000
      3270        70  POPC      H12X          -16.9747706465       14.2671686507        3.6738339699  MEMB      18              0.0000000000
      3271        70  POPC      H12Y          -16.4876248719       12.5446495723        3.5758096000  MEMB      18              0.0000000000
      3272        70  POPC      C313          -15.0226869467       13.8452859383        4.5074086619  MEMB      18              0.0000000000
      3273        70  POPC      H13X          -14.4402849032       12.9472493315        4.8109170610  MEMB      18              0.0000000000
      3274        70  POPC      H13Y          -15.0045396565       14.5553764414        5.3644396224  MEMB      18              0.0000000000
      3275        70  POPC      C314          -14.3628115008       14.5249616524        3.3005185787  MEMB      18              0.0000000000
      3276        70  POPC      H14X          -15.0130002329       15.3619354972        2.9596252503  MEMB      18              0.0000000000
      3277        70  POPC      H14Y          -14.2998383459       13.8058951686        2.4594709157  MEMB      18              0.0000000000
      3278        70  POPC      C315          -12.9735781307       15.0846950205        3.6282786431  MEMB      18              0.0000000000
      3279        70  POPC      H15X          -12.3785830936       14.3027553754        4.1515056579  MEMB      18              0.0000000000
      3280        70  POPC      H15Y          -13.1018396734       15.9293378012        4.3384301378  MEMB      18              0.0000000000
      3281        70  POPC      C316          -12.1992194078       15.5902047211        2.4081257884  MEMB      18              0.0000000000
      3282        70  POPC      H16X          -11.8523139811       14.7362368563        1.7866980314  MEMB      18              0.0000000000
      3283        70  POPC      H16Y          -11.3102550659       16.1749774895        2.7295585691  MEMB      18              0.0000000000
      3284        70  POPC      H16Z          -12.8452587954       16.2461958153        1.7853565478  MEMB      18              0.0000000000
      3285        71  POPC      N              22.6573019000        3.6016029132       19.3762713382  MEMB      19              0.0000000000
      3286        71  POPC      C12            22.3668144275        4.9233519527       18.6783314185  MEMB      19              0.0000000000
      3287        71  POPC      H12A           21.5548606144        4.7852412110       17.9598527924  MEMB      19              0.0000000000
      3288        71  POPC      H12B           23.2093869635        5.2690691510       18.1063003516  MEMB      19              0.0000000000
      3289        71  POPC      C13            21.4246792208        3.2198112491       20.1147555239  MEMB      19              0.0000000000
      3290        71  POPC      H13A           20.5594751976        3.1812694342       19.4536676348  MEMB      19              0.0000000000
      3291        71  POPC      H13B           21.4608703183        2.2556291328       20.6180843507  MEMB      19              0.0000000000
      3292        71  POPC      H13C           21.1934254275        3.9838074224       20.8503990331  MEMB      19              0.0000000000
      3293        71  POPC      C14            22.9432087394        2.5332681793       18.3656387317  MEMB      19              0.0000000000
      3294        71  POPC      H14A           23.1155152980        1.5869782659       18.8643027119  MEMB      19              0.0000000000
      3295        71  POPC      H14B           22.0919007214        2.4050324732       17.6990032918  MEMB      19              0.0000000000
      3296        71  POPC      H14C           23.8325217884        2.7675456505       17.7967973123  MEMB      19              0.0000000000
      3297        71  POPC      C15            23.7866571911        3.7016666222       20.3474354465  MEMB      19              0.0000000000
      3298        71  POPC      H15A           24.6714220307        4.1826442205       19.9523357134  MEMB      19              0.0000000000
      3299        71  POPC      H15B           24.0535538412        2.7168735654       20.7212532629  MEMB      19              0.0000000000
      3300        71  POPC      H15C           23.4849856271        4.2573555072       21.2366156426  MEMB      19              0.0000000000
      3301        71  POPC      C11            21.8408947659        6.0713816739       19.5382659332  MEMB      19              0.0000000000
      3302        71  POPC      H11A           22.5288908338        6.9432571965       19.4209308334  MEMB      19              0.0000000000
      3303        71  POPC      H11B           21.7999338280        5.7979545629       20.6155975547  MEMB      19              0.0000000000
      3304        71  POPC      P              19.8422095709        7.7359078333       19.3923988173  MEMB      19              0.0000000000
      3305        71  POPC      O13            20.7189870431        8.4916575337       20.3320577169  MEMB      19              0.0000000000
      3306        71  POPC      O14            18.4507060964        7.5030633481       19.8697685394  MEMB      19              0.0000000000
      3307        71  POPC      O12            20.5326472650        6.3435155271       19.0455645533  MEMB      19              0.0000000000
      3308        71  POPC      O11            19.7915950342        8.4901448154       18.0056998642  MEMB      19              0.0000000000
      3309        71  POPC      C1             18.7309630195        8.1881951572       17.0847977509  MEMB      19              0.0000000000
      3310        71  POPC      HA             18.4068554370        9.1473807581       16.6193928878  MEMB      19              0.0000000000
      3311        71  POPC      HB             17.8149524320        7.7639470640       17.5578083674  MEMB      19              0.0000000000
      3312        71  POPC      C2             19.1891622685        7.2795947541       15.9115398483  MEMB      19              0.0000000000
      3313        71  POPC      HS             18.3639297925        7.3376004608       15.1602001063  MEMB      19              0.0000000000
      3314        71  POPC      O21            19.4063085216        5.9229748649       16.3542577019  MEMB      19              0.0000000000
      3315        71  POPC      C21            19.3961860347        5.0694241455       15.3509199394  MEMB      19              0.0000000000
      3316        71  POPC      O22            18.9738071879        5.3074105652       14.2338205968  MEMB      19              0.0000000000
      3317        71  POPC      C22            20.1173158555        3.7885643680       15.7313986616  MEMB      19              0.0000000000
      3318        71  POPC      H2R            19.6494079122        2.9816952125       15.1411209466  MEMB      19              0.0000000000
      3319        71  POPC      H2S            19.9819104707        3.5765165190       16.8086761581  MEMB      19              0.0000000000
      3320        71  POPC      C3             20.4807721449        7.8674363135       15.2721668032  MEMB      19              0.0000000000
      3321        71  POPC      HX             20.6681324666        8.8271548308       15.8082254227  MEMB      19              0.0000000000
      3322        71  POPC      HY             20.2420938676        8.0946791712       14.2080432907  MEMB      19              0.0000000000
      3323        71  POPC      O31            21.6570253514        7.0260916569       15.3690362341  MEMB      19              0.0000000000
      3324        71  POPC      C31            22.7088549043        7.7088533105       14.8990533530  MEMB      19              0.0000000000
      3325        71  POPC      O32            22.6230552375        8.7503521735       14.2739607853  MEMB      19              0.0000000000
      3326        71  POPC      C32            23.9996396930        6.9991359464       15.3166439722  MEMB      19              0.0000000000
      3327        71  POPC      H2X            23.8761498912        5.9117609370       15.1523191704  MEMB      19              0.0000000000
      3328        71  POPC      H2Y            24.1165876054        7.2035233738       16.4038660930  MEMB      19              0.0000000000
      3329        71  POPC      C23            21.5926438612        3.9095351509       15.3106270346  MEMB      19              0.0000000000
      3330        71  POPC      H3R            22.1645436235        4.3901995260       16.1267336308  MEMB      19              0.0000000000
      3331        71  POPC      H3S            21.6748589826        4.5866382586       14.4265707038  MEMB      19              0.0000000000
      3332        71  POPC      C24            22.2673735725        2.5952458484       14.9009918029  MEMB      19              0.0000000000
      3333        71  POPC      H4R            21.7742158178        2.1714500320       13.9953798879  MEMB      19              0.0000000000
      3334        71  POPC      H4S            22.1427054433        1.8467584540       15.7117931338  MEMB      19              0.0000000000
      3335        71  POPC      C25            23.7569257024        2.8412899889       14.6182916094  MEMB      19              0.0000000000
      3336        71  POPC      H5R            24.3439384931        1.9038814445       14.7355756906  MEMB      19              0.0000000000
      3337        71  POPC      H5S            24.1275866599        3.5694591960       15.3732527172  MEMB      19              0.0000000000
      3338        71  POPC      C26            24.0087401085        3.4121762500       13.2140564808  MEMB      19              0.0000000000
      3339        71  POPC      H6R            24.9804219923        3.9466240553       13.2079443693  MEMB      19              0.0000000000
      3340        71  POPC      H6S            23.2141785140        4.1424525700       12.9474989769  MEMB      19              0.0000000000
      3341        71  POPC      C27            24.1067364670        2.3282578346       12.1355496672  MEMB      19              0.0000000000
      3342        71  POPC      H7R            23.3528765996        1.5349602780       12.3408331621  MEMB      19              0.0000000000
      3343        71  POPC      H7S            25.1168396268        1.8608658489       12.2288352955  MEMB      19              0.0000000000
      3344        71  POPC      C28            23.8998258522        2.8721315921       10.7104868284  MEMB      19              0.0000000000
      3345        71  POPC      H8R            24.6683848548        3.6443121017       10.5185084148  MEMB      19              0.0000000000
      3346        71  POPC      H8S            22.8911081293        3.3324170291       10.6190073266  MEMB      19              0.0000000000
      3347        71  POPC      C29            24.1065327547        1.7391074681        9.7564958741  MEMB      19              0.0000000000
      3348        71  POPC      H91            24.8218502940        1.0078137136       10.1502061606  MEMB      19              0.0000000000
      3349        71  POPC      C210           23.5937796566        1.5354326293        8.5352857631  MEMB      19              0.0000000000
      3350        71  POPC      H101           23.8551372937        0.5992952648        8.0258340494  MEMB      19              0.0000000000
      3351        71  POPC      C211           22.6463021698        2.3855124547        7.7414498707  MEMB      19              0.0000000000
      3352        71  POPC      H11R           22.5226033705        3.4041767722        8.1620870788  MEMB      19              0.0000000000
      3353        71  POPC      H11S           21.6576446604        1.8943996898        7.7450526966  MEMB      19              0.0000000000
      3354        71  POPC      C212           23.1080692863        2.4678836217        6.2756850187  MEMB      19              0.0000000000
      3355        71  POPC      H12R           23.4037653844        1.4514790382        5.9240549485  MEMB      19              0.0000000000
      3356        71  POPC      H12S           23.9949821925        3.1371453284        6.2077269594  MEMB      19              0.0000000000
      3357        71  POPC      C213           22.0108136495        2.9604464691        5.3233860956  MEMB      19              0.0000000000
      3358        71  POPC      H13R           21.7481534912        4.0019635112        5.5937625946  MEMB      19              0.0000000000
      3359        71  POPC      H13S           21.1063194541        2.3295187780        5.4776303429  MEMB      19              0.0000000000
      3360        71  POPC      C214           22.4068469357        2.8947800203        3.8384618763  MEMB      19              0.0000000000
      3361        71  POPC      H14R           21.4947418513        2.7233274929        3.2279468870  MEMB      19              0.0000000000
      3362        71  POPC      H14S           23.0690419418        2.0213349819        3.6623186803  MEMB      19              0.0000000000
      3363        71  POPC      C215           23.0922393104        4.1801817883        3.3558250750  MEMB      19              0.0000000000
      3364        71  POPC      H15R           23.9601964224        4.3686345090        4.0238984404  MEMB      19              0.0000000000
      3365        71  POPC      H15S           22.4014862319        5.0418912591        3.4802080111  MEMB      19              0.0000000000
      3366        71  POPC      C216           23.5944187755        4.1032155146        1.9044716188  MEMB      19              0.0000000000
      3367        71  POPC      H16R           24.1981192852        3.1767416871        1.7786002613  MEMB      19              0.0000000000
      3368        71  POPC      H16S           24.2708703641        4.9666470980        1.7216046186  MEMB      19              0.0000000000
      3369        71  POPC      C217           22.4890347318        4.1302539368        0.8377810005  MEMB      19              0.0000000000
      3370        71  POPC      H17R           21.8060222349        3.2653233650        0.9877876549  MEMB      19              0.0000000000
      3371        71  POPC      H17S           22.9662892489        3.9911257834       -0.1541603659  MEMB      19              0.0000000000
      3372        71  POPC      C218           21.6680013280        5.4218879961        0.8097544206  MEMB      19              0.0000000000
      3373        71  POPC      H18R           20.9049524892        5.3873977154        0.0035128104  MEMB      19              0.0000000000
      3374        71  POPC      H18S           22.3116035252        6.3107471874        0.6494331828  MEMB      19              0.0000000000
      3375        71  POPC      H18T           21.1405518676        5.5568818190        1.7700525047  MEMB      19              0.0000000000
      3376        71  POPC      C33            25.2526453312        7.5252649774       14.5800549616  MEMB      19              0.0000000000
      3377        71  POPC      H3X            26.1331414543        7.3996307356       15.2481632192  MEMB      19              0.0000000000
      3378        71  POPC      H3Y            25.1660626850        8.6199753946       14.3920167267  MEMB      19              0.0000000000
      3379        71  POPC      C34            25.5687679157        6.7994266793       13.2582980116  MEMB      19              0.0000000000
      3380        71  POPC      H4X            25.7729853446        5.7314342000       13.4435319885  MEMB      19              0.0000000000
      3381        71  POPC      H4Y            26.5205338065        7.2206711139       12.8657256727  MEMB      19              0.0000000000
      3382        71  POPC      C35            24.4925743268        6.9853671667       12.1728627021  MEMB      19              0.0000000000
      3383        71  POPC      H5X            24.2079224953        8.0642844764       12.1673229622  MEMB      19              0.0000000000
      3384        71  POPC      H5Y            23.5833122954        6.3980078715       12.4183180200  MEMB      19              0.0000000000
      3385        71  POPC      C36            24.9994326583        6.6179285178       10.7694223028  MEMB      19              0.0000000000
      3386        71  POPC      H6X            25.2292807302        5.5394971414       10.7098558095  MEMB      19              0.0000000000
      3387        71  POPC      H6Y            25.9711524689        7.1398107752       10.6236296036  MEMB      19              0.0000000000
      3388        71  POPC      C37            24.0458447794        7.0332679247        9.6349910623  MEMB      19              0.0000000000
      3389        71  POPC      H7X            24.6098081560        7.0085814068        8.6741023863  MEMB      19              0.0000000000
      3390        71  POPC      H7Y            23.7120870562        8.0789049065        9.8161809756  MEMB      19              0.0000000000
      3391        71  POPC      C38            22.8081091533        6.1442221341        9.4817240354  MEMB      19              0.0000000000
      3392        71  POPC      H8X            22.2363808550        6.1593036884       10.4361930591  MEMB      19              0.0000000000
      3393        71  POPC      H8Y            23.1389954568        5.1021418271        9.2947804043  MEMB      19              0.0000000000
      3394        71  POPC      C39            21.8900144486        6.5856549198        8.3287084568  MEMB      19              0.0000000000
      3395        71  POPC      H9X            22.4010595617        6.4129685981        7.3557670929  MEMB      19              0.0000000000
      3396        71  POPC      H9Y            21.6882608316        7.6770098017        8.4182421245  MEMB      19              0.0000000000
      3397        71  POPC      C310           20.5532676114        5.8346108701        8.3549943343  MEMB      19              0.0000000000
      3398        71  POPC      H10X           20.0962323241        6.0149847053        9.3572513652  MEMB      19              0.0000000000
      3399        71  POPC      H10Y           20.7349924185        4.7426591295        8.2570754568  MEMB      19              0.0000000000
      3400        71  POPC      C311           19.5410969323        6.2873072186        7.2926409330  MEMB      19              0.0000000000
      3401        71  POPC      H11X           19.5863965231        7.3946552314        7.2024740153  MEMB      19              0.0000000000
      3402        71  POPC      H11Y           18.5182385864        6.0261720198        7.6502935902  MEMB      19              0.0000000000
      3403        71  POPC      C312           19.7232597553        5.6484997062        5.9045323379  MEMB      19              0.0000000000
      3404        71  POPC      H12X           19.6482902668        4.5408983188        5.9810937295  MEMB      19              0.0000000000
      3405        71  POPC      H12Y           20.7325929189        5.9117059026        5.5168735790  MEMB      19              0.0000000000
      3406        71  POPC      C313           18.6611369752        6.1656619691        4.9272408053  MEMB      19              0.0000000000
      3407        71  POPC      H13X           18.6585273294        7.2680295098        5.0392520462  MEMB      19              0.0000000000
      3408        71  POPC      H13Y           17.6620183255        5.7755283262        5.2181007078  MEMB      19              0.0000000000
      3409        71  POPC      C314           18.9084667626        5.9228857516        3.4341521632  MEMB      19              0.0000000000
      3410        71  POPC      H14X           19.8664795187        6.4096315666        3.1512154621  MEMB      19              0.0000000000
      3411        71  POPC      H14Y           18.1001539970        6.4428550236        2.8692623280  MEMB      19              0.0000000000
      3412        71  POPC      C315           18.9084483642        4.4525222799        3.0145974178  MEMB      19              0.0000000000
      3413        71  POPC      H15X           18.3303218968        3.8538442459        3.7529224022  MEMB      19              0.0000000000
      3414        71  POPC      H15Y           19.9544500102        4.0833532953        3.0418697126  MEMB      19              0.0000000000
      3415        71  POPC      C316           18.3238386332        4.2248398540        1.6191994809  MEMB      19              0.0000000000
      3416        71  POPC      H16X           18.8009866622        4.8924483708        0.8709631815  MEMB      19              0.0000000000
      3417        71  POPC      H16Y           17.2319282043        4.4315517045        1.6115919444  MEMB      19              0.0000000000
      3418        71  POPC      H16Z           18.4863282699        3.1725052711        1.3015246830  MEMB      19              0.0000000000
      3419        72  POPC      N               3.5166379390      -29.5268697308       20.8522551478  MEMB      20              0.0000000000
      3420        72  POPC      C12             3.7189554977      -28.0443717056       20.5627234462  MEMB      20              0.0000000000
      3421        72  POPC      H12A            4.7435336146      -27.8636907825       20.2453392988  MEMB      20              0.0000000000
      3422        72  POPC      H12B            3.6188875104      -27.5074261967       21.5027158604  MEMB      20              0.0000000000
      3423        72  POPC      C13             3.8325480394      -30.3566378254       19.6527451844  MEMB      20              0.0000000000
      3424        72  POPC      H13A            3.5453869661      -31.3687887281       19.8542692575  MEMB      20              0.0000000000
      3425        72  POPC      H13B            3.1976610070      -30.0104409282       18.8261122706  MEMB      20              0.0000000000
      3426        72  POPC      H13C            4.8496356236      -30.2508831855       19.3152456169  MEMB      20              0.0000000000
      3427        72  POPC      C14             4.3457351659      -29.9137463969       22.0255384626  MEMB      20              0.0000000000
      3428        72  POPC      H14A            4.1003532731      -29.2815529085       22.8798652536  MEMB      20              0.0000000000
      3429        72  POPC      H14B            4.1765506110      -30.9277550662       22.3656048284  MEMB      20              0.0000000000
      3430        72  POPC      H14C            5.4041818611      -29.7422827490       21.8604303294  MEMB      20              0.0000000000
      3431        72  POPC      C15             2.0536677666      -29.7337625745       21.1096062979  MEMB      20              0.0000000000
      3432        72  POPC      H15A            1.6840322832      -29.0329760406       21.8484588166  MEMB      20              0.0000000000
      3433        72  POPC      H15B            1.8498145561      -30.7421116219       21.4207504871  MEMB      20              0.0000000000
      3434        72  POPC      H15C            1.4975632597      -29.5130097846       20.1895706158  MEMB      20              0.0000000000
      3435        72  POPC      C11             2.7499376654      -27.4022691206       19.5448406333  MEMB      20              0.0000000000
      3436        72  POPC      H11A            3.1522031263      -26.4188147636       19.2123660840  MEMB      20              0.0000000000
      3437        72  POPC      H11B            1.7685975695      -27.2149699552       20.0440295312  MEMB      20              0.0000000000
      3438        72  POPC      P               1.3810871293      -28.1058433080       17.4385978306  MEMB      20              0.0000000000
      3439        72  POPC      O13             0.9086586241      -26.7029706441       17.4794258425  MEMB      20              0.0000000000
      3440        72  POPC      O14             0.4212117294      -29.2089775190       17.6942540463  MEMB      20              0.0000000000
      3441        72  POPC      O12             2.6003332932      -28.2531168192       18.4210188922  MEMB      20              0.0000000000
      3442        72  POPC      O11             2.2104009509      -28.3223317723       16.0945398783  MEMB      20              0.0000000000
      3443        72  POPC      C1              3.5571651340      -27.7875482502       16.0580259613  MEMB      20              0.0000000000
      3444        72  POPC      HA              4.2733423129      -28.5229574525       16.4870537850  MEMB      20              0.0000000000
      3445        72  POPC      HB              3.6488434284      -26.8396123000       16.6459843888  MEMB      20              0.0000000000
      3446        72  POPC      C2              4.0538497693      -27.4301359567       14.6269306222  MEMB      20              0.0000000000
      3447        72  POPC      HS              3.3386801623      -26.6648860514       14.2424137585  MEMB      20              0.0000000000
      3448        72  POPC      O21             4.1023123514      -28.6176680643       13.8116683455  MEMB      20              0.0000000000
      3449        72  POPC      C21             3.1186909874      -28.7345990338       12.9269400342  MEMB      20              0.0000000000
      3450        72  POPC      O22             2.2214871273      -27.9414894211       12.7190212420  MEMB      20              0.0000000000
      3451        72  POPC      C22             3.3413809123      -30.0133352579       12.1139404572  MEMB      20              0.0000000000
      3452        72  POPC      H2R             3.0442492727      -30.8635161567       12.7605313364  MEMB      20              0.0000000000
      3453        72  POPC      H2S             4.4255634612      -30.1086834983       11.8973533399  MEMB      20              0.0000000000
      3454        72  POPC      C3              5.4726097538      -26.7344576569       14.6484173290  MEMB      20              0.0000000000
      3455        72  POPC      HX              6.0970562115      -27.3078552507       15.3686590862  MEMB      20              0.0000000000
      3456        72  POPC      HY              5.3562230751      -25.7098655620       15.0675669868  MEMB      20              0.0000000000
      3457        72  POPC      O31             6.1988565938      -26.6737134278       13.3883985973  MEMB      20              0.0000000000
      3458        72  POPC      C31             5.5270877933      -26.1807152034       12.3650808539  MEMB      20              0.0000000000
      3459        72  POPC      O32             4.3942468502      -25.7437390377       12.3896186166  MEMB      20              0.0000000000
      3460        72  POPC      C32             6.3891245117      -26.1297937169       11.0900552080  MEMB      20              0.0000000000
      3461        72  POPC      H2X             6.7836715956      -27.1417140466       10.8781495020  MEMB      20              0.0000000000
      3462        72  POPC      H2Y             7.2344870474      -25.4401742197       11.2715104596  MEMB      20              0.0000000000
      3463        72  POPC      C23             2.5145765438      -30.0597225672       10.7978351194  MEMB      20              0.0000000000
      3464        72  POPC      H3R             1.4343684962      -29.9104584503       11.0247627822  MEMB      20              0.0000000000
      3465        72  POPC      H3S             2.6235379706      -31.0803278895       10.3623231022  MEMB      20              0.0000000000
      3466        72  POPC      C24             2.9583516022      -29.0543235872        9.7187686833  MEMB      20              0.0000000000
      3467        72  POPC      H4R             2.7154613952      -28.0157437171       10.0385453196  MEMB      20              0.0000000000
      3468        72  POPC      H4S             2.3623754689      -29.2680569768        8.8009965977  MEMB      20              0.0000000000
      3469        72  POPC      C25             4.4523379978      -29.1519786356        9.3747294977  MEMB      20              0.0000000000
      3470        72  POPC      H5R             4.7594514459      -30.2135621233        9.5137111907  MEMB      20              0.0000000000
      3471        72  POPC      H5S             5.0517566275      -28.5654313125       10.1010198537  MEMB      20              0.0000000000
      3472        72  POPC      C26             4.7800977953      -28.7468794787        7.9267341325  MEMB      20              0.0000000000
      3473        72  POPC      H6R             5.5151551479      -27.9142395152        7.9082060367  MEMB      20              0.0000000000
      3474        72  POPC      H6S             3.8545292971      -28.3849708744        7.4248656960  MEMB      20              0.0000000000
      3475        72  POPC      C27             5.3418088600      -29.9449637148        7.1494205835  MEMB      20              0.0000000000
      3476        72  POPC      H7R             4.7222982358      -30.8257718755        7.4484246369  MEMB      20              0.0000000000
      3477        72  POPC      H7S             6.3897336210      -30.1242148666        7.4780253441  MEMB      20              0.0000000000
      3478        72  POPC      C28             5.2997640963      -29.8183480336        5.6208108669  MEMB      20              0.0000000000
      3479        72  POPC      H8R             6.1068003505      -29.1333118589        5.2833501742  MEMB      20              0.0000000000
      3480        72  POPC      H8S             4.3269144484      -29.3487682654        5.3508647157  MEMB      20              0.0000000000
      3481        72  POPC      C29             5.4510644082      -31.1996777028        5.0282624235  MEMB      20              0.0000000000
      3482        72  POPC      H91             6.4287072617      -31.6783992424        5.1905329483  MEMB      20              0.0000000000
      3483        72  POPC      C210            4.5079876567      -31.8639595409        4.3391391042  MEMB      20              0.0000000000
      3484        72  POPC      H101            4.6726782904      -32.9188871732        4.0867908239  MEMB      20              0.0000000000
      3485        72  POPC      C211            3.1313059170      -31.3516375903        4.0237701506  MEMB      20              0.0000000000
      3486        72  POPC      H11R            2.7783419291      -31.7500211172        3.0468872629  MEMB      20              0.0000000000
      3487        72  POPC      H11S            3.1449419725      -30.2513013653        3.9118018904  MEMB      20              0.0000000000
      3488        72  POPC      C212            2.1007555201      -31.6617150240        5.1104434300  MEMB      20              0.0000000000
      3489        72  POPC      H12R            2.4475724857      -31.2723606342        6.0948912440  MEMB      20              0.0000000000
      3490        72  POPC      H12S            1.9829185954      -32.7660357213        5.1993270893  MEMB      20              0.0000000000
      3491        72  POPC      C213            0.7409882347      -31.0346079281        4.7775590518  MEMB      20              0.0000000000
      3492        72  POPC      H13R            0.0278140349      -31.4039315713        5.5443541832  MEMB      20              0.0000000000
      3493        72  POPC      H13S            0.4132573455      -31.4169507852        3.7850736155  MEMB      20              0.0000000000
      3494        72  POPC      C214            0.7194492481      -29.4934241426        4.7656217994  MEMB      20              0.0000000000
      3495        72  POPC      H14R            1.4883497463      -29.0954797128        4.0711175595  MEMB      20              0.0000000000
      3496        72  POPC      H14S            0.9918051088      -29.1360514780        5.7844452567  MEMB      20              0.0000000000
      3497        72  POPC      C215           -0.6335923851      -28.8763428853        4.3708072142  MEMB      20              0.0000000000
      3498        72  POPC      H15R           -0.6251562646      -27.8014947817        4.6585339715  MEMB      20              0.0000000000
      3499        72  POPC      H15S           -1.4497504103      -29.3474430958        4.9542694425  MEMB      20              0.0000000000
      3500        72  POPC      C216           -1.0029361648      -28.9709679325        2.8791160572  MEMB      20              0.0000000000
      3501        72  POPC      H16R           -1.9342385934      -28.3746241636        2.7362185919  MEMB      20              0.0000000000
      3502        72  POPC      H16S           -1.2416913283      -30.0228398817        2.6083367088  MEMB      20              0.0000000000
      3503        72  POPC      C217            0.0645933169      -28.4553837596        1.9046997299  MEMB      20              0.0000000000
      3504        72  POPC      H17R            0.8735323145      -29.2150353233        1.8090433737  MEMB      20              0.0000000000
      3505        72  POPC      H17S            0.5334393228      -27.5425255398        2.3267244245  MEMB      20              0.0000000000
      3506        72  POPC      C218           -0.5039746198      -28.1332656377        0.5198423907  MEMB      20              0.0000000000
      3507        72  POPC      H18R           -1.3994275433      -27.4805470500        0.6080640177  MEMB      20              0.0000000000
      3508        72  POPC      H18S           -0.8054011825      -29.0682490773        0.0012518607  MEMB      20              0.0000000000
      3509        72  POPC      H18T            0.2492602584      -27.6129301585       -0.1078752903  MEMB      20              0.0000000000
      3510        72  POPC      C33             5.4916957841      -25.6096985173        9.9342939714  MEMB      20              0.0000000000
      3511        72  POPC      H3X             4.9038996905      -24.7300746449       10.2852842659  MEMB      20              0.0000000000
      3512        72  POPC      H3Y             4.7460577798      -26.3957949839        9.6803233021  MEMB      20              0.0000000000
      3513        72  POPC      C34             6.1530821758      -25.1296553473        8.6324794070  MEMB      20              0.0000000000
      3514        72  POPC      H4X             6.8336025982      -25.9031390351        8.2175345622  MEMB      20              0.0000000000
      3515        72  POPC      H4Y             6.7528163784      -24.2154909596        8.8316431192  MEMB      20              0.0000000000
      3516        72  POPC      C35             5.0378546737      -24.8034414481        7.6183418119  MEMB      20              0.0000000000
      3517        72  POPC      H5X             4.2354992725      -24.2328866429        8.1423630860  MEMB      20              0.0000000000
      3518        72  POPC      H5Y             4.5945392948      -25.7689889533        7.2901468946  MEMB      20              0.0000000000
      3519        72  POPC      C36             5.4653020015      -23.9826430731        6.3932171782  MEMB      20              0.0000000000
      3520        72  POPC      H6X             6.2716698492      -24.5165624286        5.8519989608  MEMB      20              0.0000000000
      3521        72  POPC      H6Y             5.9082320950      -23.0236159157        6.7479700393  MEMB      20              0.0000000000
      3522        72  POPC      C37             4.2989688677      -23.6400819909        5.4388228077  MEMB      20              0.0000000000
      3523        72  POPC      H7X             4.6855177882      -23.1018188568        4.5457402613  MEMB      20              0.0000000000
      3524        72  POPC      H7Y             3.6300745211      -22.9311078110        5.9834165996  MEMB      20              0.0000000000
      3525        72  POPC      C38             3.4025300622      -24.8042982377        4.9658180241  MEMB      20              0.0000000000
      3526        72  POPC      H8X             2.4605990459      -24.3365987877        4.5891431517  MEMB      20              0.0000000000
      3527        72  POPC      H8Y             3.1026855110      -25.4619443499        5.8076833836  MEMB      20              0.0000000000
      3528        72  POPC      C39             3.9486335462      -25.6454089285        3.7963377356  MEMB      20              0.0000000000
      3529        72  POPC      H9X             4.2689812822      -24.9775256037        2.9690982695  MEMB      20              0.0000000000
      3530        72  POPC      H9Y             3.0896307977      -26.2489272063        3.4246568955  MEMB      20              0.0000000000
      3531        72  POPC      C310            5.0901756586      -26.6066621370        4.1679629739  MEMB      20              0.0000000000
      3532        72  POPC      H10X            4.7437152078      -27.2564934946        4.9974513258  MEMB      20              0.0000000000
      3533        72  POPC      H10Y            5.9519639031      -26.0197763281        4.5477856516  MEMB      20              0.0000000000
      3534        72  POPC      C311            5.6287609921      -27.4562261589        2.9980080176  MEMB      20              0.0000000000
      3535        72  POPC      H11X            6.4656431148      -28.0951899172        3.3583372924  MEMB      20              0.0000000000
      3536        72  POPC      H11Y            6.0667066820      -26.7544674223        2.2586333641  MEMB      20              0.0000000000
      3537        72  POPC      C312            4.5921063100      -28.3521527642        2.2984926385  MEMB      20              0.0000000000
      3538        72  POPC      H12X            3.6000659273      -27.8561229369        2.3069641917  MEMB      20              0.0000000000
      3539        72  POPC      H12Y            4.4958360154      -29.3063154838        2.8461071015  MEMB      20              0.0000000000
      3540        72  POPC      C313            4.9324991817      -28.6726327535        0.8397452879  MEMB      20              0.0000000000
      3541        72  POPC      H13X            5.5748783100      -29.5764348279        0.7727211672  MEMB      20              0.0000000000
      3542        72  POPC      H13Y            5.5333273300      -27.8220537264        0.4445043527  MEMB      20              0.0000000000
      3543        72  POPC      C314            3.6914351845      -28.7884802862       -0.0660889476  MEMB      20              0.0000000000
      3544        72  POPC      H14X            3.9841474450      -28.4029391831       -1.0691980368  MEMB      20              0.0000000000
      3545        72  POPC      H14Y            2.8771808478      -28.1259539463        0.2957445299  MEMB      20              0.0000000000
      3546        72  POPC      C315            3.1539867794      -30.2001069810       -0.3167924032  MEMB      20              0.0000000000
      3547        72  POPC      H15X            2.6935471927      -30.5995833448        0.6132179362  MEMB      20              0.0000000000
      3548        72  POPC      H15Y            3.9963670495      -30.8734566498       -0.5949107816  MEMB      20              0.0000000000
      3549        72  POPC      C316            2.1332671470      -30.1941062460       -1.4602217242  MEMB      20              0.0000000000
      3550        72  POPC      H16X            1.2562815160      -29.5674480426       -1.1936719613  MEMB      20              0.0000000000
      3551        72  POPC      H16Y            1.7789396089      -31.2190730881       -1.6941964983  MEMB      20              0.0000000000
      3552        72  POPC      H16Z            2.5889266308      -29.7644158771       -2.3802769075  MEMB      20              0.0000000000
      3553        73  POPC      N             -11.7592114831      -22.7267473306       21.0201537715  MEMB      21              0.0000000000
      3554        73  POPC      C12           -11.6992894440      -24.0292977640       20.2020893781  MEMB      21              0.0000000000
      3555        73  POPC      H12A          -11.9097185562      -24.8941104753       20.8264427444  MEMB      21              0.0000000000
      3556        73  POPC      H12B          -10.6982554930      -24.1550387014       19.8110971183  MEMB      21              0.0000000000
      3557        73  POPC      C13           -11.5598863330      -21.5923857441       20.0526231046  MEMB      21              0.0000000000
      3558        73  POPC      H13A          -11.8795559802      -20.6468309695       20.4483674254  MEMB      21              0.0000000000
      3559        73  POPC      H13B          -10.5312111074      -21.5078012428       19.7094879610  MEMB      21              0.0000000000
      3560        73  POPC      H13C          -12.1231892629      -21.8112881071       19.1350629646  MEMB      21              0.0000000000
      3561        73  POPC      C14           -13.1086887472      -22.5696646517       21.6351462072  MEMB      21              0.0000000000
      3562        73  POPC      H14A          -13.2803093817      -23.3480431101       22.3673799513  MEMB      21              0.0000000000
      3563        73  POPC      H14B          -13.2276711968      -21.6028642426       22.1117828823  MEMB      21              0.0000000000
      3564        73  POPC      H14C          -13.8728407862      -22.6414802843       20.8672428135  MEMB      21              0.0000000000
      3565        73  POPC      C15           -10.6791507935      -22.6245905995       22.0584932015  MEMB      21              0.0000000000
      3566        73  POPC      H15A           -9.6891129619      -22.7320887077       21.6195801910  MEMB      21              0.0000000000
      3567        73  POPC      H15B          -10.8115414744      -23.3352173748       22.8669227525  MEMB      21              0.0000000000
      3568        73  POPC      H15C          -10.7185879322      -21.6395712110       22.5185668272  MEMB      21              0.0000000000
      3569        73  POPC      C11           -12.5962341380      -24.1599775802       18.9317587545  MEMB      21              0.0000000000
      3570        73  POPC      H11A          -13.6577396852      -23.9766365984       19.2064989924  MEMB      21              0.0000000000
      3571        73  POPC      H11B          -12.5525948269      -25.2176850927       18.5754418344  MEMB      21              0.0000000000
      3572        73  POPC      P             -11.0132572298      -23.5528313207       16.8906942845  MEMB      21              0.0000000000
      3573        73  POPC      O13           -11.3673516358      -23.0071727610       15.5596820466  MEMB      21              0.0000000000
      3574        73  POPC      O14           -10.6470634925      -24.9829442783       17.0095985313  MEMB      21              0.0000000000
      3575        73  POPC      O12           -12.2198164562      -23.2698999031       17.8874181376  MEMB      21              0.0000000000
      3576        73  POPC      O11            -9.9240162829      -22.6203895311       17.5809186771  MEMB      21              0.0000000000
      3577        73  POPC      C1             -8.8869967213      -23.0762331069       18.4493333809  MEMB      21              0.0000000000
      3578        73  POPC      HA             -9.1498343550      -24.0298792376       18.9572911386  MEMB      21              0.0000000000
      3579        73  POPC      HB             -8.7439543340      -22.3135497100       19.2429521991  MEMB      21              0.0000000000
      3580        73  POPC      C2             -7.4899247950      -23.2877917858       17.7662350774  MEMB      21              0.0000000000
      3581        73  POPC      HS             -6.7259002969      -23.3459812113       18.5753238486  MEMB      21              0.0000000000
      3582        73  POPC      O21            -7.1076606984      -22.2972649525       16.8210952879  MEMB      21              0.0000000000
      3583        73  POPC      C21            -7.2487518219      -21.0363011955       17.1478697058  MEMB      21              0.0000000000
      3584        73  POPC      O22            -7.2807353491      -20.6097412912       18.2883769302  MEMB      21              0.0000000000
      3585        73  POPC      C22            -7.3882609263      -20.2536549556       15.8360240232  MEMB      21              0.0000000000
      3586        73  POPC      H2R            -6.3658640037      -19.9225468466       15.5663139318  MEMB      21              0.0000000000
      3587        73  POPC      H2S            -8.0224410596      -19.3649343890       16.0214469368  MEMB      21              0.0000000000
      3588        73  POPC      C3             -7.4374778919      -24.6171505426       17.0056190711  MEMB      21              0.0000000000
      3589        73  POPC      HX             -7.8796444814      -25.3894467169       17.6732129029  MEMB      21              0.0000000000
      3590        73  POPC      HY             -6.3617131317      -24.8537922918       16.8311070604  MEMB      21              0.0000000000
      3591        73  POPC      O31            -8.2260349352      -24.5555034920       15.8001663371  MEMB      21              0.0000000000
      3592        73  POPC      C31            -7.6269089667      -24.8803276760       14.6930937396  MEMB      21              0.0000000000
      3593        73  POPC      O32            -6.4268034685      -25.0228232824       14.5120350577  MEMB      21              0.0000000000
      3594        73  POPC      C32            -8.6875354825      -25.1808182047       13.6359014003  MEMB      21              0.0000000000
      3595        73  POPC      H2X            -9.3878462186      -24.3221264076       13.5928448928  MEMB      21              0.0000000000
      3596        73  POPC      H2Y            -9.2536353981      -26.0643654894       13.9958114590  MEMB      21              0.0000000000
      3597        73  POPC      C23            -7.9859855160      -21.1589358234       14.7289743731  MEMB      21              0.0000000000
      3598        73  POPC      H3R            -9.0228790284      -21.4593569521       15.0144647943  MEMB      21              0.0000000000
      3599        73  POPC      H3S            -7.3911141051      -22.0982036057       14.6345353525  MEMB      21              0.0000000000
      3600        73  POPC      C24            -7.9839607997      -20.5543203304       13.3327072762  MEMB      21              0.0000000000
      3601        73  POPC      H4R            -6.9512856390      -20.2468440984       13.0646734452  MEMB      21              0.0000000000
      3602        73  POPC      H4S            -8.6108345713      -19.6394162218       13.3477221664  MEMB      21              0.0000000000
      3603        73  POPC      C25            -8.5099341046      -21.5893013945       12.3304768759  MEMB      21              0.0000000000
      3604        73  POPC      H5R            -9.2958278443      -22.1950553496       12.8389980565  MEMB      21              0.0000000000
      3605        73  POPC      H5S            -7.6934662704      -22.2869654986       12.0401614177  MEMB      21              0.0000000000
      3606        73  POPC      C26            -9.1334355814      -20.9541353163       11.0886015274  MEMB      21              0.0000000000
      3607        73  POPC      H6R            -9.5911683827      -19.9832716843       11.3794967601  MEMB      21              0.0000000000
      3608        73  POPC      H6S            -9.9460782353      -21.6106010259       10.7041845006  MEMB      21              0.0000000000
      3609        73  POPC      C27            -8.0821828427      -20.7458456522        9.9993115918  MEMB      21              0.0000000000
      3610        73  POPC      H7R            -7.7055193365      -21.7331600744        9.6485056355  MEMB      21              0.0000000000
      3611        73  POPC      H7S            -7.2332087162      -20.1997162294       10.4641557606  MEMB      21              0.0000000000
      3612        73  POPC      C28            -8.5722516576      -19.9286282390        8.7998918891  MEMB      21              0.0000000000
      3613        73  POPC      H8R            -7.6906252347      -19.7245582475        8.1564073974  MEMB      21              0.0000000000
      3614        73  POPC      H8S            -8.9314045224      -18.9405833761        9.1661942891  MEMB      21              0.0000000000
      3615        73  POPC      C29            -9.6638263441      -20.6401963156        8.0443958807  MEMB      21              0.0000000000
      3616        73  POPC      H91           -10.6328699544      -20.6605864153        8.5653595786  MEMB      21              0.0000000000
      3617        73  POPC      C210           -9.5463744656      -21.2878748445        6.8732898947  MEMB      21              0.0000000000
      3618        73  POPC      H101          -10.4475257406      -21.7419162101        6.4298418391  MEMB      21              0.0000000000
      3619        73  POPC      C211           -8.2902725490      -21.4479226814        6.0560128267  MEMB      21              0.0000000000
      3620        73  POPC      H11R           -8.4816118203      -22.1834774504        5.2404765747  MEMB      21              0.0000000000
      3621        73  POPC      H11S           -7.4768291920      -21.8794066865        6.6827327881  MEMB      21              0.0000000000
      3622        73  POPC      C212           -7.7480870128      -20.1677699498        5.3916668328  MEMB      21              0.0000000000
      3623        73  POPC      H12R           -6.8755904425      -20.4758930590        4.7781063485  MEMB      21              0.0000000000
      3624        73  POPC      H12S           -7.3494505268      -19.4482127976        6.1379814418  MEMB      21              0.0000000000
      3625        73  POPC      C213           -8.7837411207      -19.4508081646        4.5112702497  MEMB      21              0.0000000000
      3626        73  POPC      H13R           -9.2884120114      -18.6720476830        5.1295681212  MEMB      21              0.0000000000
      3627        73  POPC      H13S           -9.5711395424      -20.1635251089        4.1863111495  MEMB      21              0.0000000000
      3628        73  POPC      C214           -8.1668324799      -18.7845209323        3.2757663422  MEMB      21              0.0000000000
      3629        73  POPC      H14R           -7.3777575450      -18.0880292150        3.6434871182  MEMB      21              0.0000000000
      3630        73  POPC      H14S           -8.9274446802      -18.1740478341        2.7460054803  MEMB      21              0.0000000000
      3631        73  POPC      C215           -7.4748951125      -19.7243823438        2.2741626518  MEMB      21              0.0000000000
      3632        73  POPC      H15R           -6.5594896283      -20.0853792774        2.7806238214  MEMB      21              0.0000000000
      3633        73  POPC      H15S           -7.1473007194      -19.1038234387        1.4168465088  MEMB      21              0.0000000000
      3634        73  POPC      C216           -8.2368973219      -20.9632073719        1.7595342790  MEMB      21              0.0000000000
      3635        73  POPC      H16R           -8.8528451895      -20.6873709177        0.8766900929  MEMB      21              0.0000000000
      3636        73  POPC      H16S           -8.9290850506      -21.3420466008        2.5410917648  MEMB      21              0.0000000000
      3637        73  POPC      C217           -7.2653827664      -22.1074103671        1.3986830362  MEMB      21              0.0000000000
      3638        73  POPC      H17R           -7.4435207116      -22.9721065454        2.0760919573  MEMB      21              0.0000000000
      3639        73  POPC      H17S           -6.2310329230      -21.7629242220        1.6081439041  MEMB      21              0.0000000000
      3640        73  POPC      C218           -7.2661927845      -22.5763603339       -0.0568588494  MEMB      21              0.0000000000
      3641        73  POPC      H18R           -8.0595295251      -23.3212672489       -0.2398542044  MEMB      21              0.0000000000
      3642        73  POPC      H18S           -6.2873768679      -23.0517608659       -0.2990104556  MEMB      21              0.0000000000
      3643        73  POPC      H18T           -7.4262188484      -21.7258557678       -0.7493612735  MEMB      21              0.0000000000
      3644        73  POPC      C33            -8.0652632489      -25.4570377992       12.2492711665  MEMB      21              0.0000000000
      3645        73  POPC      H3X            -7.4145995945      -26.3583095661       12.2831968482  MEMB      21              0.0000000000
      3646        73  POPC      H3Y            -7.4125599179      -24.5933008064       11.9899695776  MEMB      21              0.0000000000
      3647        73  POPC      C34            -9.1272656299      -25.6137385080       11.1514012080  MEMB      21              0.0000000000
      3648        73  POPC      H4X            -9.9014830566      -24.8344548073       11.3296365300  MEMB      21              0.0000000000
      3649        73  POPC      H4Y            -9.6297934500      -26.6018776232       11.2465152203  MEMB      21              0.0000000000
      3650        73  POPC      C35            -8.5605137904      -25.4280268308        9.7346610539  MEMB      21              0.0000000000
      3651        73  POPC      H5X            -8.4854916314      -26.4130128049        9.2256982720  MEMB      21              0.0000000000
      3652        73  POPC      H5Y            -7.5239845194      -25.0252295203        9.8145287647  MEMB      21              0.0000000000
      3653        73  POPC      C36            -9.3488288165      -24.4399734174        8.8555628528  MEMB      21              0.0000000000
      3654        73  POPC      H6X            -8.8201573779      -24.3559425997        7.8783227741  MEMB      21              0.0000000000
      3655        73  POPC      H6Y            -9.3260905482      -23.4336589260        9.3288007532  MEMB      21              0.0000000000
      3656        73  POPC      C37           -10.8155496294      -24.8070491085        8.5710655923  MEMB      21              0.0000000000
      3657        73  POPC      H7X           -11.2154350846      -24.0321452453        7.8769623346  MEMB      21              0.0000000000
      3658        73  POPC      H7Y           -11.4184819096      -24.7575423889        9.5034417667  MEMB      21              0.0000000000
      3659        73  POPC      C38           -10.9918887236      -26.1881235737        7.9230452499  MEMB      21              0.0000000000
      3660        73  POPC      H8X           -11.0577619445      -26.9605990447        8.7208105810  MEMB      21              0.0000000000
      3661        73  POPC      H8Y           -10.0834130764      -26.4274317607        7.3244475823  MEMB      21              0.0000000000
      3662        73  POPC      C39           -12.2194234065      -26.2746932402        6.9983883483  MEMB      21              0.0000000000
      3663        73  POPC      H9X           -12.8417356355      -25.3584478373        7.0860835184  MEMB      21              0.0000000000
      3664        73  POPC      H9Y           -12.8489467742      -27.1330272243        7.3279049840  MEMB      21              0.0000000000
      3665        73  POPC      C310          -11.8308473169      -26.5091175162        5.5304664824  MEMB      21              0.0000000000
      3666        73  POPC      H10X          -12.7357013841      -26.6765609120        4.9065089324  MEMB      21              0.0000000000
      3667        73  POPC      H10Y          -11.2380404421      -27.4537432214        5.5124081119  MEMB      21              0.0000000000
      3668        73  POPC      C311          -10.9672617049      -25.4046919004        4.8977923653  MEMB      21              0.0000000000
      3669        73  POPC      H11X          -10.3076052267      -25.9173916328        4.1666016375  MEMB      21              0.0000000000
      3670        73  POPC      H11Y          -10.2960741635      -24.9268235088        5.6421139411  MEMB      21              0.0000000000
      3671        73  POPC      C312          -11.7780969961      -24.3300222009        4.1569618545  MEMB      21              0.0000000000
      3672        73  POPC      H12X          -12.2512961731      -23.6662574948        4.9152322543  MEMB      21              0.0000000000
      3673        73  POPC      H12Y          -12.5983669002      -24.8100467389        3.5777095061  MEMB      21              0.0000000000
      3674        73  POPC      C313          -10.9253785079      -23.4833741320        3.1939697723  MEMB      21              0.0000000000
      3675        73  POPC      H13X           -9.8737181430      -23.4513573310        3.5505381203  MEMB      21              0.0000000000
      3676        73  POPC      H13Y          -11.3011096038      -22.4361163885        3.2168639277  MEMB      21              0.0000000000
      3677        73  POPC      C314          -10.9860060299      -23.9598443983        1.7303602369  MEMB      21              0.0000000000
      3678        73  POPC      H14X          -10.4122500199      -23.2485570353        1.0940325514  MEMB      21              0.0000000000
      3679        73  POPC      H14Y          -12.0355558510      -23.9514384153        1.3733012927  MEMB      21              0.0000000000
      3680        73  POPC      C315          -10.4676682579      -25.3782470054        1.5075915621  MEMB      21              0.0000000000
      3681        73  POPC      H15X          -10.6722091365      -25.6660250496        0.4544065919  MEMB      21              0.0000000000
      3682        73  POPC      H15Y          -11.0459342016      -26.0942901665        2.1319389141  MEMB      21              0.0000000000
      3683        73  POPC      C316           -8.9755827216      -25.5138528033        1.7874019931  MEMB      21              0.0000000000
      3684        73  POPC      H16X           -8.6375384017      -26.5244307806        1.5013743575  MEMB      21              0.0000000000
      3685        73  POPC      H16Y           -8.7391340334      -25.3375873017        2.8569880343  MEMB      21              0.0000000000
      3686        73  POPC      H16Z           -8.3923155278      -24.7954943219        1.1854622937  MEMB      21              0.0000000000
      3687        74  POPC      N             -11.8267417125       23.0876309327       19.3505081321  MEMB      22              0.0000000000
      3688        74  POPC      C12           -10.8989671067       22.8111321018       18.1799277460  MEMB      22              0.0000000000
      3689        74  POPC      H12A          -11.1834355852       23.4012823509       17.3250210608  MEMB      22              0.0000000000
      3690        74  POPC      H12B          -10.9883154529       21.7551734926       17.9023635182  MEMB      22              0.0000000000
      3691        74  POPC      C13           -13.2376877793       23.3319887002       18.9413032843  MEMB      22              0.0000000000
      3692        74  POPC      H13A          -13.7946366289       23.7019661192       19.7953746746  MEMB      22              0.0000000000
      3693        74  POPC      H13B          -13.2989770557       24.1106053902       18.1951841260  MEMB      22              0.0000000000
      3694        74  POPC      H13C          -13.7255038847       22.4300289464       18.5778245758  MEMB      22              0.0000000000
      3695        74  POPC      C14           -11.7850301500       21.8969576628       20.2588962158  MEMB      22              0.0000000000
      3696        74  POPC      H14A          -11.9175399227       20.9746248249       19.6916958907  MEMB      22              0.0000000000
      3697        74  POPC      H14B          -10.7830230224       21.8180786144       20.6816125728  MEMB      22              0.0000000000
      3698        74  POPC      H14C          -12.5263686439       21.9477864800       21.0450263202  MEMB      22              0.0000000000
      3699        74  POPC      C15           -11.3419155362       24.2733197166       20.1355866920  MEMB      22              0.0000000000
      3700        74  POPC      H15A          -11.3413211011       25.1705676377       19.5352331976  MEMB      22              0.0000000000
      3701        74  POPC      H15B          -10.3122589310       24.1145143158       20.4572201144  MEMB      22              0.0000000000
      3702        74  POPC      H15C          -11.9443662351       24.4529243054       21.0145878907  MEMB      22              0.0000000000
      3703        74  POPC      C11            -9.3893195952       23.0105237610       18.4442193347  MEMB      22              0.0000000000
      3704        74  POPC      H11A           -9.1628752990       24.0628835629       18.7145456480  MEMB      22              0.0000000000
      3705        74  POPC      H11B           -8.8302746602       22.8151538079       17.4965836470  MEMB      22              0.0000000000
      3706        74  POPC      P              -8.6726908092       20.6316839364       19.1498311309  MEMB      22              0.0000000000
      3707        74  POPC      O13            -9.9576685837       20.0899587848       18.6395219892  MEMB      22              0.0000000000
      3708        74  POPC      O14            -8.0706765319       19.9978109378       20.3453173898  MEMB      22              0.0000000000
      3709        74  POPC      O12            -8.9604178599       22.1612548426       19.5045707987  MEMB      22              0.0000000000
      3710        74  POPC      O11            -7.6009541003       20.7749265775       17.9764366869  MEMB      22              0.0000000000
      3711        74  POPC      C1             -7.7462721927       19.9936696485       16.7846234050  MEMB      22              0.0000000000
      3712        74  POPC      HA             -8.5465207166       20.4187488155       16.1396631476  MEMB      22              0.0000000000
      3713        74  POPC      HB             -8.0269231004       18.9422353150       17.0388630247  MEMB      22              0.0000000000
      3714        74  POPC      C2             -6.4325435554       19.9047107132       15.9390185981  MEMB      22              0.0000000000
      3715        74  POPC      HS             -5.5735061367       19.9116261926       16.6420978636  MEMB      22              0.0000000000
      3716        74  POPC      O21            -6.3710885413       21.0069761783       15.0147440485  MEMB      22              0.0000000000
      3717        74  POPC      C21            -5.3142128136       21.0514067797       14.2011336725  MEMB      22              0.0000000000
      3718        74  POPC      O22            -4.1732266304       20.7633825957       14.5162488857  MEMB      22              0.0000000000
      3719        74  POPC      C22            -5.7191650307       21.6882097585       12.8577427935  MEMB      22              0.0000000000
      3720        74  POPC      H2R            -5.5028370188       20.9499051841       12.0603352926  MEMB      22              0.0000000000
      3721        74  POPC      H2S            -5.0680013341       22.5671409361       12.6842927392  MEMB      22              0.0000000000
      3722        74  POPC      C3             -6.4237118808       18.5688982164       15.1463343673  MEMB      22              0.0000000000
      3723        74  POPC      HX             -6.4207611193       17.7365600609       15.8757878343  MEMB      22              0.0000000000
      3724        74  POPC      HY             -5.4882451994       18.4452833927       14.5559963917  MEMB      22              0.0000000000
      3725        74  POPC      O31            -7.6338060654       18.4808531027       14.3675684988  MEMB      22              0.0000000000
      3726        74  POPC      C31            -7.5199091461       18.6131555293       13.0612728906  MEMB      22              0.0000000000
      3727        74  POPC      O32            -6.4883428549       18.7727635794       12.4317460382  MEMB      22              0.0000000000
      3728        74  POPC      C32            -8.9342075603       18.6082396963       12.4639963346  MEMB      22              0.0000000000
      3729        74  POPC      H2X            -9.4966617106       19.4167516518       12.9782915701  MEMB      22              0.0000000000
      3730        74  POPC      H2Y            -9.4187619741       17.6409845710       12.7015796469  MEMB      22              0.0000000000
      3731        74  POPC      C23            -7.2189322900       22.0826606531       12.8212102425  MEMB      22              0.0000000000
      3732        74  POPC      H3R            -7.4079588702       22.9099642134       13.5338972283  MEMB      22              0.0000000000
      3733        74  POPC      H3S            -7.8396634439       21.2314813637       13.1752075766  MEMB      22              0.0000000000
      3734        74  POPC      C24            -7.7753098936       22.4966763610       11.4586171969  MEMB      22              0.0000000000
      3735        74  POPC      H4R            -7.5474680844       21.7096778026       10.7070707616  MEMB      22              0.0000000000
      3736        74  POPC      H4S            -7.2958395155       23.4392836558       11.1197239380  MEMB      22              0.0000000000
      3737        74  POPC      C25            -9.2975618017       22.6809147627       11.5637349067  MEMB      22              0.0000000000
      3738        74  POPC      H5R            -9.5302990767       23.4070115860       12.3760333701  MEMB      22              0.0000000000
      3739        74  POPC      H5S            -9.7462353456       21.7023804444       11.8514395583  MEMB      22              0.0000000000
      3740        74  POPC      C26            -9.9618203933       23.1599329349       10.2686379449  MEMB      22              0.0000000000
      3741        74  POPC      H6R            -9.4947995278       22.6373463123        9.4034564138  MEMB      22              0.0000000000
      3742        74  POPC      H6S            -9.7788917313       24.2511017940       10.1495164660  MEMB      22              0.0000000000
      3743        74  POPC      C27           -11.4747484262       22.8814741986       10.2487791939  MEMB      22              0.0000000000
      3744        74  POPC      H7R           -11.9469179285       23.3011879980       11.1656870755  MEMB      22              0.0000000000
      3745        74  POPC      H7S           -11.6193672352       21.7772778227       10.2747972684  MEMB      22              0.0000000000
      3746        74  POPC      C28           -12.1622168272       23.4662369442        9.0001846496  MEMB      22              0.0000000000
      3747        74  POPC      H8R           -11.5064530820       23.2614774961        8.1241496043  MEMB      22              0.0000000000
      3748        74  POPC      H8S           -12.1991929426       24.5734222170        9.1074323954  MEMB      22              0.0000000000
      3749        74  POPC      C29           -13.5505784112       22.9226625583        8.7616263035  MEMB      22              0.0000000000
      3750        74  POPC      H91           -14.3668095055       23.4875555292        9.2393542867  MEMB      22              0.0000000000
      3751        74  POPC      C210          -13.8503098671       21.8231469033        8.0439373637  MEMB      22              0.0000000000
      3752        74  POPC      H101          -14.9075242286       21.5421254955        7.9126874146  MEMB      22              0.0000000000
      3753        74  POPC      C211          -12.8585809856       20.9237874981        7.3455332938  MEMB      22              0.0000000000
      3754        74  POPC      H11R          -13.0323563192       19.8698932087        7.6537626044  MEMB      22              0.0000000000
      3755        74  POPC      H11S          -11.8097940690       21.1539912444        7.6392099734  MEMB      22              0.0000000000
      3756        74  POPC      C212          -12.9460018314       21.0144885626        5.8111560712  MEMB      22              0.0000000000
      3757        74  POPC      H12R          -12.7467548057       22.0641835474        5.4978425479  MEMB      22              0.0000000000
      3758        74  POPC      H12S          -13.9721950076       20.7495650743        5.4736419848  MEMB      22              0.0000000000
      3759        74  POPC      C213          -11.9400419160       20.0803748505        5.1176594812  MEMB      22              0.0000000000
      3760        74  POPC      H13R          -12.0440589144       19.0571404304        5.5427361940  MEMB      22              0.0000000000
      3761        74  POPC      H13S          -10.9132770049       20.4352544233        5.3543912262  MEMB      22              0.0000000000
      3762        74  POPC      C214          -12.1180614165       19.9933334554        3.5915503979  MEMB      22              0.0000000000
      3763        74  POPC      H14R          -13.1264677091       19.5824729075        3.3638519261  MEMB      22              0.0000000000
      3764        74  POPC      H14S          -11.3652506110       19.2821111729        3.1812514272  MEMB      22              0.0000000000
      3765        74  POPC      C215          -11.9534928505       21.3460165101        2.8884594019  MEMB      22              0.0000000000
      3766        74  POPC      H15R          -10.9509536026       21.7573458771        3.1349832388  MEMB      22              0.0000000000
      3767        74  POPC      H15S          -12.7070721291       22.0642428667        3.2753223713  MEMB      22              0.0000000000
      3768        74  POPC      C216          -12.0881719307       21.2859026246        1.3606899944  MEMB      22              0.0000000000
      3769        74  POPC      H16R          -13.1512840982       21.0989036462        1.0915049699  MEMB      22              0.0000000000
      3770        74  POPC      H16S          -11.4760338215       20.4461999128        0.9611021878  MEMB      22              0.0000000000
      3771        74  POPC      C217          -11.5940900864       22.5916748068        0.7275519482  MEMB      22              0.0000000000
      3772        74  POPC      H17R          -10.5028042266       22.6754958866        0.9174504730  MEMB      22              0.0000000000
      3773        74  POPC      H17S          -12.0573978932       23.4478107342        1.2565176254  MEMB      22              0.0000000000
      3774        74  POPC      C218          -11.8528837580       22.7323719785       -0.7713929927  MEMB      22              0.0000000000
      3775        74  POPC      H18R          -11.3403761871       23.6463904025       -1.1394931882  MEMB      22              0.0000000000
      3776        74  POPC      H18S          -12.9384469792       22.8240431319       -0.9874928609  MEMB      22              0.0000000000
      3777        74  POPC      H18T          -11.4483398238       21.8636919793       -1.3301315855  MEMB      22              0.0000000000
      3778        74  POPC      C33            -8.9902600022       18.8583245677       10.9352387098  MEMB      22              0.0000000000
      3779        74  POPC      H3X            -8.1575827070       19.5189323126       10.6050706859  MEMB      22              0.0000000000
      3780        74  POPC      H3Y            -9.9375356195       19.3995571462       10.7073049679  MEMB      22              0.0000000000
      3781        74  POPC      C34            -8.9839583235       17.5525091094       10.1228844780  MEMB      22              0.0000000000
      3782        74  POPC      H4X            -9.6658668691       16.8107414326       10.5982524871  MEMB      22              0.0000000000
      3783        74  POPC      H4Y            -7.9652734472       17.1215000952       10.1685890448  MEMB      22              0.0000000000
      3784        74  POPC      C35            -9.3961293535       17.6866132804        8.6458345962  MEMB      22              0.0000000000
      3785        74  POPC      H5X           -10.5090314304       17.6586154383        8.5903953912  MEMB      22              0.0000000000
      3786        74  POPC      H5Y            -9.0186126851       16.7989426942        8.0925355736  MEMB      22              0.0000000000
      3787        74  POPC      C36            -8.9261954892       18.9651083191        7.9346645155  MEMB      22              0.0000000000
      3788        74  POPC      H6X            -9.3000964699       19.8519016379        8.4928154022  MEMB      22              0.0000000000
      3789        74  POPC      H6Y            -9.4025538224       18.9900548164        6.9292379004  MEMB      22              0.0000000000
      3790        74  POPC      C37            -7.4045199021       19.0987447951        7.7535049318  MEMB      22              0.0000000000
      3791        74  POPC      H7X            -7.0633476971       18.3994863830        6.9595697923  MEMB      22              0.0000000000
      3792        74  POPC      H7Y            -6.8910251601       18.7982760300        8.6951277376  MEMB      22              0.0000000000
      3793        74  POPC      C38            -6.9835411869       20.5434821585        7.4190962678  MEMB      22              0.0000000000
      3794        74  POPC      H8X            -5.8888135370       20.5994269311        7.2405515921  MEMB      22              0.0000000000
      3795        74  POPC      H8Y            -7.1979133453       21.1559890590        8.3279424627  MEMB      22              0.0000000000
      3796        74  POPC      C39            -7.7492778249       21.1902264673        6.2500093817  MEMB      22              0.0000000000
      3797        74  POPC      H9X            -7.6411800864       22.2954904179        6.3156587177  MEMB      22              0.0000000000
      3798        74  POPC      H9Y            -8.8366058442       20.9933900148        6.3668805731  MEMB      22              0.0000000000
      3799        74  POPC      C310           -7.3103427658       20.7639560653        4.8386925153  MEMB      22              0.0000000000
      3800        74  POPC      H10X           -7.0164557121       19.6916891077        4.8252671002  MEMB      22              0.0000000000
      3801        74  POPC      H10Y           -6.4203049694       21.3614848105        4.5422253693  MEMB      22              0.0000000000
      3802        74  POPC      C311           -8.4577295285       20.9821224787        3.8391861710  MEMB      22              0.0000000000
      3803        74  POPC      H11X           -9.0091733762       21.9048241997        4.1288701448  MEMB      22              0.0000000000
      3804        74  POPC      H11Y           -9.1611032950       20.1258467345        3.9502494865  MEMB      22              0.0000000000
      3805        74  POPC      C312           -8.0675303379       21.1041315131        2.3561007608  MEMB      22              0.0000000000
      3806        74  POPC      H12X           -8.9104260830       20.6940388860        1.7509412452  MEMB      22              0.0000000000
      3807        74  POPC      H12Y           -7.1709161487       20.4921441695        2.1319432539  MEMB      22              0.0000000000
      3808        74  POPC      C313           -7.8701000056       22.5602687952        1.9028508680  MEMB      22              0.0000000000
      3809        74  POPC      H13X           -6.9665924901       22.9816782846        2.3883480909  MEMB      22              0.0000000000
      3810        74  POPC      H13Y           -8.7404437673       23.1616707814        2.2492077011  MEMB      22              0.0000000000
      3811        74  POPC      C314           -7.7456206333       22.7106560415        0.3781641953  MEMB      22              0.0000000000
      3812        74  POPC      H14X           -8.5938733511       22.1898691603       -0.1202114730  MEMB      22              0.0000000000
      3813        74  POPC      H14Y           -6.8072351343       22.2161353272        0.0410289451  MEMB      22              0.0000000000
      3814        74  POPC      C315           -7.7398241272       24.1807971899       -0.0677561669  MEMB      22              0.0000000000
      3815        74  POPC      H15X           -7.0410205653       24.7422302278        0.5937476918  MEMB      22              0.0000000000
      3816        74  POPC      H15Y           -8.7604607443       24.6035201096        0.0796278344  MEMB      22              0.0000000000
      3817        74  POPC      C316           -7.3117807100       24.3818452111       -1.5226884351  MEMB      22              0.0000000000
      3818        74  POPC      H16X           -8.0584515489       23.9454469149       -2.2167143006  MEMB      22              0.0000000000
      3819        74  POPC      H16Y           -6.3359312254       23.8837539345       -1.7075649991  MEMB      22              0.0000000000
      3820        74  POPC      H16Z           -7.2111935522       25.4610582374       -1.7636633276  MEMB      22              0.0000000000
      3821        75  POPC      N              12.9189506885      -17.4699149199       17.4942549097  MEMB      23              0.0000000000
      3822        75  POPC      C12            13.9226602247      -16.3216638989       17.4182521434  MEMB      23              0.0000000000
      3823        75  POPC      H12A           13.4071863475      -15.4165092959       17.1303435478  MEMB      23              0.0000000000
      3824        75  POPC      H12B           14.6507619326      -16.5518510437       16.6408792333  MEMB      23              0.0000000000
      3825        75  POPC      C13            12.1483684470      -17.6330618748       16.2250024061  MEMB      23              0.0000000000
      3826        75  POPC      H13A           12.7982614016      -17.9268512986       15.4080827748  MEMB      23              0.0000000000
      3827        75  POPC      H13B           11.3559642257      -18.3706649894       16.3601584593  MEMB      23              0.0000000000
      3828        75  POPC      H13C           11.6473470566      -16.7072067478       15.9607409462  MEMB      23              0.0000000000
      3829        75  POPC      C14            13.6787358889      -18.7333468260       17.7754147848  MEMB      23              0.0000000000
      3830        75  POPC      H14A           13.0357932793      -19.5974711474       17.8224397928  MEMB      23              0.0000000000
      3831        75  POPC      H14B           14.4705489735      -18.8770165279       17.0515139203  MEMB      23              0.0000000000
      3832        75  POPC      H14C           14.1871901333      -18.6193656341       18.7407966430  MEMB      23              0.0000000000
      3833        75  POPC      C15            11.9545804241      -17.2494725701       18.6270565141  MEMB      23              0.0000000000
      3834        75  POPC      H15A           11.3258832936      -16.3752763956       18.4884276714  MEMB      23              0.0000000000
      3835        75  POPC      H15B           12.5452846754      -17.1453946126       19.5323209727  MEMB      23              0.0000000000
      3836        75  POPC      H15C           11.2904008209      -18.1015551918       18.7560449275  MEMB      23              0.0000000000
      3837        75  POPC      C11            14.7498393814      -16.0140719827       18.6981331014  MEMB      23              0.0000000000
      3838        75  POPC      H11A           14.0622061073      -15.8027789116       19.5487116056  MEMB      23              0.0000000000
      3839        75  POPC      H11B           15.3694723426      -15.1061654810       18.5134672476  MEMB      23              0.0000000000
      3840        75  POPC      P              16.3851263668      -17.2247590055       20.3595792310  MEMB      23              0.0000000000
      3841        75  POPC      O13            15.4076590838      -17.6197005120       21.4017221303  MEMB      23              0.0000000000
      3842        75  POPC      O14            17.1639107125      -15.9975943158       20.6581017762  MEMB      23              0.0000000000
      3843        75  POPC      O12            15.6085882106      -17.1000858614       18.9953097336  MEMB      23              0.0000000000
      3844        75  POPC      O11            17.3861717234      -18.4160505840       20.1125928860  MEMB      23              0.0000000000
      3845        75  POPC      C1             17.3511613756      -19.2147786471       18.9301630614  MEMB      23              0.0000000000
      3846        75  POPC      HA             16.3297724599      -19.3304489865       18.5057302340  MEMB      23              0.0000000000
      3847        75  POPC      HB             17.6791460857      -20.2242467508       19.2208752710  MEMB      23              0.0000000000
      3848        75  POPC      C2             18.3184673337      -18.7506156586       17.7999069393  MEMB      23              0.0000000000
      3849        75  POPC      HS             19.2938368738      -18.5005071562       18.2769599502  MEMB      23              0.0000000000
      3850        75  POPC      O21            17.7527974712      -17.6006952438       17.1415665973  MEMB      23              0.0000000000
      3851        75  POPC      C21            18.6252219894      -16.9147322477       16.4068874940  MEMB      23              0.0000000000
      3852        75  POPC      O22            19.8029917802      -17.2029356175       16.2949096029  MEMB      23              0.0000000000
      3853        75  POPC      C22            17.9525975147      -15.6732694610       15.8012929801  MEMB      23              0.0000000000
      3854        75  POPC      H2R            18.4238654393      -14.7748669409       16.2555631916  MEMB      23              0.0000000000
      3855        75  POPC      H2S            16.8816106935      -15.6818100695       16.0847379262  MEMB      23              0.0000000000
      3856        75  POPC      C3             18.5353322073      -19.9267592191       16.7979431569  MEMB      23              0.0000000000
      3857        75  POPC      HX             19.1412564308      -20.6956248622       17.3211540765  MEMB      23              0.0000000000
      3858        75  POPC      HY             19.1574059120      -19.6060474790       15.9295789684  MEMB      23              0.0000000000
      3859        75  POPC      O31            17.2626013400      -20.5167461420       16.4402488406  MEMB      23              0.0000000000
      3860        75  POPC      C31            16.8483568068      -20.2651210405       15.2048471286  MEMB      23              0.0000000000
      3861        75  POPC      O32            17.4805809153      -19.6994638233       14.3376613231  MEMB      23              0.0000000000
      3862        75  POPC      C32            15.4599135916      -20.8556422032       14.9719299507  MEMB      23              0.0000000000
      3863        75  POPC      H2X            14.9503576934      -21.0400248346       15.9356724620  MEMB      23              0.0000000000
      3864        75  POPC      H2Y            15.6139593853      -21.8273634392       14.4555821133  MEMB      23              0.0000000000
      3865        75  POPC      C23            18.0939243008      -15.5697886067       14.2583197263  MEMB      23              0.0000000000
      3866        75  POPC      H3R            19.1330253825      -15.2699058436       13.9913248898  MEMB      23              0.0000000000
      3867        75  POPC      H3S            17.4269488304      -14.7560110136       13.8971855256  MEMB      23              0.0000000000
      3868        75  POPC      C24            17.7565313602      -16.8820752200       13.5393139514  MEMB      23              0.0000000000
      3869        75  POPC      H4R            16.8575772284      -17.3489934400       13.9975557501  MEMB      23              0.0000000000
      3870        75  POPC      H4S            18.6189587165      -17.5733433685       13.7028828293  MEMB      23              0.0000000000
      3871        75  POPC      C25            17.5371241799      -16.7716763917       12.0222517879  MEMB      23              0.0000000000
      3872        75  POPC      H5R            17.9720494402      -17.6823643860       11.5449304850  MEMB      23              0.0000000000
      3873        75  POPC      H5S            18.0837786819      -15.8892756981       11.6256730165  MEMB      23              0.0000000000
      3874        75  POPC      C26            16.0583213717      -16.7273529591       11.6054811371  MEMB      23              0.0000000000
      3875        75  POPC      H6R            15.5885204440      -17.7127180262       11.8231140539  MEMB      23              0.0000000000
      3876        75  POPC      H6S            16.0067728136      -16.5806807160       10.5035984902  MEMB      23              0.0000000000
      3877        75  POPC      C27            15.2502514787      -15.6192692924       12.2895497259  MEMB      23              0.0000000000
      3878        75  POPC      H7R            15.8047392845      -14.6586802948       12.1702524698  MEMB      23              0.0000000000
      3879        75  POPC      H7S            15.1662892966      -15.8320453461       13.3782945047  MEMB      23              0.0000000000
      3880        75  POPC      C28            13.8505762178      -15.4205019133       11.6786226373  MEMB      23              0.0000000000
      3881        75  POPC      H8R            13.9910819328      -15.0824013669       10.6269230756  MEMB      23              0.0000000000
      3882        75  POPC      H8S            13.3789922426      -14.5774773932       12.2220246278  MEMB      23              0.0000000000
      3883        75  POPC      C29            12.9494135219      -16.6265791100       11.7669804655  MEMB      23              0.0000000000
      3884        75  POPC      H91            12.9500207110      -17.1418746133       12.7381536088  MEMB      23              0.0000000000
      3885        75  POPC      C210           12.2045635405      -17.1372907987       10.7695496056  MEMB      23              0.0000000000
      3886        75  POPC      H101           11.6076610309      -18.0458526241       10.9630967389  MEMB      23              0.0000000000
      3887        75  POPC      C211           12.1100982771      -16.6155912191        9.3545178565  MEMB      23              0.0000000000
      3888        75  POPC      H11R           12.3645517467      -15.5360109393        9.2781804782  MEMB      23              0.0000000000
      3889        75  POPC      H11S           11.0649902013      -16.7299505506        8.9897146732  MEMB      23              0.0000000000
      3890        75  POPC      C212           13.0395954451      -17.4225157740        8.4333354366  MEMB      23              0.0000000000
      3891        75  POPC      H12R           12.8034187853      -18.4973405841        8.5863653104  MEMB      23              0.0000000000
      3892        75  POPC      H12S           14.1025012017      -17.2704728408        8.7324022144  MEMB      23              0.0000000000
      3893        75  POPC      C213           12.8868529638      -17.1023722400        6.9373771822  MEMB      23              0.0000000000
      3894        75  POPC      H13R           13.2884090714      -16.0833663956        6.7580101866  MEMB      23              0.0000000000
      3895        75  POPC      H13S           11.8100234791      -17.1168145080        6.6570277565  MEMB      23              0.0000000000
      3896        75  POPC      C214           13.6519202326      -18.1056760995        6.0631379652  MEMB      23              0.0000000000
      3897        75  POPC      H14R           13.2369753067      -19.1213856910        6.2383722773  MEMB      23              0.0000000000
      3898        75  POPC      H14S           14.7158227479      -18.1080767196        6.3865109486  MEMB      23              0.0000000000
      3899        75  POPC      C215           13.6031352410      -17.8544435998        4.5502661301  MEMB      23              0.0000000000
      3900        75  POPC      H15R           12.5498644989      -17.8123594697        4.1959565403  MEMB      23              0.0000000000
      3901        75  POPC      H15S           14.0887904562      -18.7301865669        4.0561506320  MEMB      23              0.0000000000
      3902        75  POPC      C216           14.3603797817      -16.5969420806        4.1141560944  MEMB      23              0.0000000000
      3903        75  POPC      H16R           15.3139537372      -16.5280379485        4.6865802280  MEMB      23              0.0000000000
      3904        75  POPC      H16S           13.7572195869      -15.6916282826        4.3475921981  MEMB      23              0.0000000000
      3905        75  POPC      C217           14.6991523979      -16.6217768864        2.6196620998  MEMB      23              0.0000000000
      3906        75  POPC      H17R           13.7549520100      -16.7235340140        2.0405829895  MEMB      23              0.0000000000
      3907        75  POPC      H17S           15.3244175042      -17.5188947363        2.4001799450  MEMB      23              0.0000000000
      3908        75  POPC      C218           15.4290039779      -15.3660244678        2.1496994437  MEMB      23              0.0000000000
      3909        75  POPC      H18R           15.6392989313      -15.4225850917        1.0605802211  MEMB      23              0.0000000000
      3910        75  POPC      H18S           16.3902055277      -15.2304423703        2.6851499919  MEMB      23              0.0000000000
      3911        75  POPC      H18T           14.8002906464      -14.4739464718        2.3501301272  MEMB      23              0.0000000000
      3912        75  POPC      C33            14.6135507314      -19.9116129236       14.0791699014  MEMB      23              0.0000000000
      3913        75  POPC      H3X            15.2253938825      -19.5116952360       13.2360481674  MEMB      23              0.0000000000
      3914        75  POPC      H3Y            14.2815133112      -19.0407064861       14.6831111419  MEMB      23              0.0000000000
      3915        75  POPC      C34            13.3972280225      -20.6022887080       13.4552230396  MEMB      23              0.0000000000
      3916        75  POPC      H4X            12.6303400990      -19.8489004028       13.1604133768  MEMB      23              0.0000000000
      3917        75  POPC      H4Y            12.9357260328      -21.2758098131       14.2079893746  MEMB      23              0.0000000000
      3918        75  POPC      C35            13.7669973911      -21.4118680125       12.2042381263  MEMB      23              0.0000000000
      3919        75  POPC      H5X            13.0001834985      -22.1979350233       12.0458183069  MEMB      23              0.0000000000
      3920        75  POPC      H5Y            14.7335079343      -21.9397533318       12.3530020235  MEMB      23              0.0000000000
      3921        75  POPC      C36            13.8300476092      -20.5756539060       10.9125807265  MEMB      23              0.0000000000
      3922        75  POPC      H6X            14.7102908389      -19.8995666711       10.9640036007  MEMB      23              0.0000000000
      3923        75  POPC      H6Y            12.9198242268      -19.9433739260       10.8183059242  MEMB      23              0.0000000000
      3924        75  POPC      C37            13.9093792219      -21.4928253530        9.6834206558  MEMB      23              0.0000000000
      3925        75  POPC      H7X            12.9000584022      -21.9151184555        9.4770254479  MEMB      23              0.0000000000
      3926        75  POPC      H7Y            14.5716992335      -22.3406518754        9.9586757742  MEMB      23              0.0000000000
      3927        75  POPC      C38            14.4684063189      -20.8611735794        8.3991565591  MEMB      23              0.0000000000
      3928        75  POPC      H8X            13.7360266883      -20.1620906714        7.9657528987  MEMB      23              0.0000000000
      3929        75  POPC      H8Y            14.5916041815      -21.6796469050        7.6581421516  MEMB      23              0.0000000000
      3930        75  POPC      C39            15.8189184343      -20.1602566519        8.5919625440  MEMB      23              0.0000000000
      3931        75  POPC      H9X            16.3675686154      -20.6865025231        9.4013485063  MEMB      23              0.0000000000
      3932        75  POPC      H9Y            15.6609327784      -19.1165074246        8.9436505085  MEMB      23              0.0000000000
      3933        75  POPC      C310           16.6999416821      -20.1621140053        7.3355825536  MEMB      23              0.0000000000
      3934        75  POPC      H10X           16.2132160282      -19.5274140449        6.5709705384  MEMB      23              0.0000000000
      3935        75  POPC      H10Y           16.7704343655      -21.1858810905        6.9059183007  MEMB      23              0.0000000000
      3936        75  POPC      C311           18.1123575075      -19.6553589963        7.6491692814  MEMB      23              0.0000000000
      3937        75  POPC      H11X           18.6490016985      -20.4375929857        8.2336304991  MEMB      23              0.0000000000
      3938        75  POPC      H11Y           18.0407006878      -18.7489946218        8.2921494162  MEMB      23              0.0000000000
      3939        75  POPC      C312           18.9568315257      -19.3084986307        6.4166714607  MEMB      23              0.0000000000
      3940        75  POPC      H12X           19.1011115505      -20.2174761484        5.7910497237  MEMB      23              0.0000000000
      3941        75  POPC      H12Y           19.9447348141      -18.9916241853        6.8120067117  MEMB      23              0.0000000000
      3942        75  POPC      C313           18.3874549958      -18.1682647960        5.5570022021  MEMB      23              0.0000000000
      3943        75  POPC      H13X           18.3610448008      -17.2320176515        6.1566377111  MEMB      23              0.0000000000
      3944        75  POPC      H13Y           17.3433073120      -18.4116155597        5.2631126741  MEMB      23              0.0000000000
      3945        75  POPC      C314           19.1607860940      -17.9247416498        4.2515382603  MEMB      23              0.0000000000
      3946        75  POPC      H14X           19.1868280971      -18.8772148509        3.6801717847  MEMB      23              0.0000000000
      3947        75  POPC      H14Y           20.2071663992      -17.6272132915        4.4645516985  MEMB      23              0.0000000000
      3948        75  POPC      C315           18.4964358621      -16.8421910392        3.3933535803  MEMB      23              0.0000000000
      3949        75  POPC      H15X           18.6997414831      -15.8492680003        3.8543734926  MEMB      23              0.0000000000
      3950        75  POPC      H15Y           17.3974494213      -17.0130965424        3.4357318821  MEMB      23              0.0000000000
      3951        75  POPC      C316           18.9247178336      -16.8299895538        1.9243516047  MEMB      23              0.0000000000
      3952        75  POPC      H16X           18.5384154130      -17.7230606920        1.3938558286  MEMB      23              0.0000000000
      3953        75  POPC      H16Y           20.0313562262      -16.8276389815        1.8383255463  MEMB      23              0.0000000000
      3954        75  POPC      H16Z           18.5212023164      -15.9314182608        1.4082605278  MEMB      23              0.0000000000
      3955        76  POPC      N              15.1023575346       -2.6488719347       18.4463667069  MEMB      24              0.0000000000
      3956        76  POPC      C12            16.2234195865       -1.6208791258       18.3528144609  MEMB      24              0.0000000000
      3957        76  POPC      H12A           15.9174957928       -0.7954069793       17.7317047694  MEMB      24              0.0000000000
      3958        76  POPC      H12B           17.0737169742       -2.0430576061       17.8091206029  MEMB      24              0.0000000000
      3959        76  POPC      C13            14.0506509343       -2.2523086202       19.4394050679  MEMB      24              0.0000000000
      3960        76  POPC      H13A           13.6842977938       -1.2533061055       19.2437876725  MEMB      24              0.0000000000
      3961        76  POPC      H13B           13.1936285974       -2.9241511299       19.4312948891  MEMB      24              0.0000000000
      3962        76  POPC      H13C           14.4863403269       -2.2521356357       20.4357600110  MEMB      24              0.0000000000
      3963        76  POPC      C14            14.4052571154       -2.8581326159       17.1404343702  MEMB      24              0.0000000000
      3964        76  POPC      H14A           13.6076425275       -2.1238202240       17.0162406116  MEMB      24              0.0000000000
      3965        76  POPC      H14B           15.0686959694       -2.8080776148       16.2886830421  MEMB      24              0.0000000000
      3966        76  POPC      H14C           13.9269446782       -3.8325522319       17.1236843479  MEMB      24              0.0000000000
      3967        76  POPC      C15            15.7269427299       -3.9311826010       18.9231885291  MEMB      24              0.0000000000
      3968        76  POPC      H15A           16.4872956389       -4.2713403106       18.2301697333  MEMB      24              0.0000000000
      3969        76  POPC      H15B           15.0120332392       -4.7277652223       19.0652565304  MEMB      24              0.0000000000
      3970        76  POPC      H15C           16.2402552276       -3.7514286309       19.8736946858  MEMB      24              0.0000000000
      3971        76  POPC      C11            16.8168055480       -1.0964595901       19.6910594082  MEMB      24              0.0000000000
      3972        76  POPC      H11A           16.0200292000       -0.6378238052       20.3167365323  MEMB      24              0.0000000000
      3973        76  POPC      H11B           17.5298926064       -0.2755205169       19.4421295745  MEMB      24              0.0000000000
      3974        76  POPC      P              18.9493436367       -2.5484534371       20.1502777845  MEMB      24              0.0000000000
      3975        76  POPC      O13            19.2192178783       -3.9766429083       20.4747372346  MEMB      24              0.0000000000
      3976        76  POPC      O14            19.8504214662       -1.5450318626       20.7697317292  MEMB      24              0.0000000000
      3977        76  POPC      O12            17.4485913067       -2.1331777694       20.4503120495  MEMB      24              0.0000000000
      3978        76  POPC      O11            19.0227976677       -2.3666636214       18.5687268363  MEMB      24              0.0000000000
      3979        76  POPC      C1             20.2573590099       -2.0884208567       17.8988020811  MEMB      24              0.0000000000
      3980        76  POPC      HA             20.8474375028       -3.0259137552       17.8078462746  MEMB      24              0.0000000000
      3981        76  POPC      HB             20.8626360060       -1.3379896779       18.4615629195  MEMB      24              0.0000000000
      3982        76  POPC      C2             20.0408823479       -1.4967041289       16.4647775571  MEMB      24              0.0000000000
      3983        76  POPC      HS             20.9692999630       -0.9471771983       16.1815080562  MEMB      24              0.0000000000
      3984        76  POPC      O21            18.9086051575       -0.6141665615       16.5010656042  MEMB      24              0.0000000000
      3985        76  POPC      C21            18.8717886891        0.3247290720       15.5853139188  MEMB      24              0.0000000000
      3986        76  POPC      O22            19.7300151499        0.5800431961       14.7644490757  MEMB      24              0.0000000000
      3987        76  POPC      C22            17.5497794584        1.0546597003       15.7792252625  MEMB      24              0.0000000000
      3988        76  POPC      H2R            17.6991594177        1.7138354731       16.6564679909  MEMB      24              0.0000000000
      3989        76  POPC      H2S            16.7729711949        0.2959911287       16.0133205607  MEMB      24              0.0000000000
      3990        76  POPC      C3             19.8352477417       -2.6460906804       15.4281310084  MEMB      24              0.0000000000
      3991        76  POPC      HX             19.1632509233       -3.3857848443       15.9175194205  MEMB      24              0.0000000000
      3992        76  POPC      HY             20.8136449527       -3.1552188097       15.2683693681  MEMB      24              0.0000000000
      3993        76  POPC      O31            19.2120369209       -2.2252708885       14.1961473051  MEMB      24              0.0000000000
      3994        76  POPC      C31            20.0094390996       -2.0981852865       13.1244462044  MEMB      24              0.0000000000
      3995        76  POPC      O32            21.2157066799       -2.2472810555       13.1140235213  MEMB      24              0.0000000000
      3996        76  POPC      C32            19.1214206638       -1.7924120146       11.9063700626  MEMB      24              0.0000000000
      3997        76  POPC      H2X            18.6884395511       -0.7967596808       12.0765102422  MEMB      24              0.0000000000
      3998        76  POPC      H2Y            18.2970404903       -2.5295644512       11.8578515329  MEMB      24              0.0000000000
      3999        76  POPC      C23            17.0838373058        1.8680346835       14.5568076108  MEMB      24              0.0000000000
      4000        76  POPC      H3R            17.8124794328        2.6592222847       14.2807460275  MEMB      24              0.0000000000
      4001        76  POPC      H3S            16.1163819784        2.3627555929       14.7954879577  MEMB      24              0.0000000000
      4002        76  POPC      C24            16.8536409782        0.9703656246       13.3493995995  MEMB      24              0.0000000000
      4003        76  POPC      H4R            15.9983935624        0.2972006053       13.5781536225  MEMB      24              0.0000000000
      4004        76  POPC      H4S            17.7447128802        0.3427547720       13.2176430386  MEMB      24              0.0000000000
      4005        76  POPC      C25            16.5862743256        1.7245595521       12.0456302169  MEMB      24              0.0000000000
      4006        76  POPC      H5R            15.8598260533        2.5463335761       12.2240039174  MEMB      24              0.0000000000
      4007        76  POPC      H5S            16.1423379155        0.9970316927       11.3266604655  MEMB      24              0.0000000000
      4008        76  POPC      C26            17.7850665823        2.2803219464       11.2778964486  MEMB      24              0.0000000000
      4009        76  POPC      H6R            18.4969544338        1.4444939501       11.0953605442  MEMB      24              0.0000000000
      4010        76  POPC      H6S            18.3138408787        3.0626629383       11.8633079957  MEMB      24              0.0000000000
      4011        76  POPC      C27            17.2520151040        2.8586558464        9.9490029580  MEMB      24              0.0000000000
      4012        76  POPC      H7R            16.6572869304        3.7695825304       10.1899153849  MEMB      24              0.0000000000
      4013        76  POPC      H7S            16.5502786115        2.1264647133        9.4864441866  MEMB      24              0.0000000000
      4014        76  POPC      C28            18.3161766764        3.2173922126        8.9092161290  MEMB      24              0.0000000000
      4015        76  POPC      H8R            18.9523389256        4.0168038961        9.3425425301  MEMB      24              0.0000000000
      4016        76  POPC      H8S            17.8144336876        3.6411996471        8.0103715153  MEMB      24              0.0000000000
      4017        76  POPC      C29            19.1486065126        2.0117937224        8.5759770337  MEMB      24              0.0000000000
      4018        76  POPC      H91            19.8890855472        1.7565015836        9.3510099231  MEMB      24              0.0000000000
      4019        76  POPC      C210           19.0842012584        1.2434591501        7.4761555000  MEMB      24              0.0000000000
      4020        76  POPC      H101           19.7520589304        0.3707144284        7.4236634997  MEMB      24              0.0000000000
      4021        76  POPC      C211           18.1629541567        1.3871832903        6.2911304650  MEMB      24              0.0000000000
      4022        76  POPC      H11R           18.7611122317        1.6463797955        5.3885531480  MEMB      24              0.0000000000
      4023        76  POPC      H11S           17.4132669307        2.1966236034        6.4206726932  MEMB      24              0.0000000000
      4024        76  POPC      C212           17.4294891517        0.0625189152        6.0187034730  MEMB      24              0.0000000000
      4025        76  POPC      H12R           18.1471984991       -0.7846937377        6.0185416076  MEMB      24              0.0000000000
      4026        76  POPC      H12S           16.9842845940        0.1061841675        5.0002843150  MEMB      24              0.0000000000
      4027        76  POPC      C213           16.3391933590       -0.2661439109        7.0469984448  MEMB      24              0.0000000000
      4028        76  POPC      H13R           15.4425073084        0.3447064759        6.8155575754  MEMB      24              0.0000000000
      4029        76  POPC      H13S           16.6841165802        0.0281165345        8.0635982034  MEMB      24              0.0000000000
      4030        76  POPC      C214           15.9700261608       -1.7599140693        7.0920652762  MEMB      24              0.0000000000
      4031        76  POPC      H14R           15.1161012029       -1.8904080831        7.7944480916  MEMB      24              0.0000000000
      4032        76  POPC      H14S           16.8341772722       -2.3263448240        7.5106593905  MEMB      24              0.0000000000
      4033        76  POPC      C215           15.6026647360       -2.3765824829        5.7305142062  MEMB      24              0.0000000000
      4034        76  POPC      H15R           15.1936234536       -3.3970294021        5.9075993718  MEMB      24              0.0000000000
      4035        76  POPC      H15S           16.5277689491       -2.4876702113        5.1215155197  MEMB      24              0.0000000000
      4036        76  POPC      C216           14.5717079370       -1.5565570305        4.9395574139  MEMB      24              0.0000000000
      4037        76  POPC      H16R           15.0128329735       -0.5812517253        4.6484469567  MEMB      24              0.0000000000
      4038        76  POPC      H16S           13.7037415408       -1.3339250953        5.5998246706  MEMB      24              0.0000000000
      4039        76  POPC      C217           14.0688150655       -2.2451841919        3.6632724760  MEMB      24              0.0000000000
      4040        76  POPC      H17R           13.2857494631       -1.5910733836        3.2142097580  MEMB      24              0.0000000000
      4041        76  POPC      H17S           13.5852701798       -3.2038903599        3.9498569889  MEMB      24              0.0000000000
      4042        76  POPC      C218           15.1416222718       -2.5349566499        2.6083107555  MEMB      24              0.0000000000
      4043        76  POPC      H18R           14.6698178535       -2.9152839747        1.6768597498  MEMB      24              0.0000000000
      4044        76  POPC      H18S           15.8590188163       -3.2989376024        2.9735935455  MEMB      24              0.0000000000
      4045        76  POPC      H18T           15.7106784517       -1.6153902239        2.3571972872  MEMB      24              0.0000000000
      4046        76  POPC      C33            19.8404638183       -1.6663495180       10.5470989719  MEMB      24              0.0000000000
      4047        76  POPC      H3X            20.8954712158       -1.3515005631       10.6973015356  MEMB      24              0.0000000000
      4048        76  POPC      H3Y            19.3365050667       -0.8452323747        9.9795036935  MEMB      24              0.0000000000
      4049        76  POPC      C34            19.7337086549       -2.9172597289        9.6642847489  MEMB      24              0.0000000000
      4050        76  POPC      H4X            18.6776350956       -3.2716801097        9.6620462148  MEMB      24              0.0000000000
      4051        76  POPC      H4Y            20.3620493611       -3.7284609632       10.0970074465  MEMB      24              0.0000000000
      4052        76  POPC      C35            20.1484670848       -2.6426934875        8.2069067246  MEMB      24              0.0000000000
      4053        76  POPC      H5X            19.4531923377       -1.8964964203        7.7617728202  MEMB      24              0.0000000000
      4054        76  POPC      H5Y            20.0575077916       -3.5807990221        7.6152369116  MEMB      24              0.0000000000
      4055        76  POPC      C36            21.5840167545       -2.1166457744        8.1105075977  MEMB      24              0.0000000000
      4056        76  POPC      H6X            22.2730102058       -2.9360274652        8.4149835627  MEMB      24              0.0000000000
      4057        76  POPC      H6Y            21.7155251903       -1.2700998069        8.8209227300  MEMB      24              0.0000000000
      4058        76  POPC      C37            22.0145676937       -1.5621118893        6.7458473980  MEMB      24              0.0000000000
      4059        76  POPC      H7X            23.0372073417       -1.1352793323        6.8343494996  MEMB      24              0.0000000000
      4060        76  POPC      H7Y            21.3421783936       -0.7180958517        6.4904631670  MEMB      24              0.0000000000
      4061        76  POPC      C38            22.0221127697       -2.6104061928        5.6324607271  MEMB      24              0.0000000000
      4062        76  POPC      H8X            21.0073592456       -3.0553425484        5.5572611173  MEMB      24              0.0000000000
      4063        76  POPC      H8Y            22.7195116993       -3.4319171233        5.9121092018  MEMB      24              0.0000000000
      4064        76  POPC      C39            22.4390448398       -2.0487892193        4.2611425225  MEMB      24              0.0000000000
      4065        76  POPC      H9X            22.3171248471       -2.8534026064        3.5074313321  MEMB      24              0.0000000000
      4066        76  POPC      H9Y            23.5216691079       -1.7908379558        4.2907538450  MEMB      24              0.0000000000
      4067        76  POPC      C310           21.6599812600       -0.8065711387        3.7870043215  MEMB      24              0.0000000000
      4068        76  POPC      H10X           21.9186016739       -0.5973727406        2.7257839737  MEMB      24              0.0000000000
      4069        76  POPC      H10Y           22.0017263730        0.0685296567        4.3846916956  MEMB      24              0.0000000000
      4070        76  POPC      C311           20.1309252327       -0.8904922232        3.9268049091  MEMB      24              0.0000000000
      4071        76  POPC      H11X           19.6740233506        0.0307369894        3.5023014276  MEMB      24              0.0000000000
      4072        76  POPC      H11Y           19.8936656361       -0.9009732946        5.0102013306  MEMB      24              0.0000000000
      4073        76  POPC      C312           19.4577773068       -2.1185639859        3.3009375226  MEMB      24              0.0000000000
      4074        76  POPC      H12X           18.3637182879       -2.0537235417        3.5053414489  MEMB      24              0.0000000000
      4075        76  POPC      H12Y           19.8181527362       -3.0482173274        3.7919688217  MEMB      24              0.0000000000
      4076        76  POPC      C313           19.6589470165       -2.2575595501        1.7890082552  MEMB      24              0.0000000000
      4077        76  POPC      H13X           20.7376552978       -2.3901774657        1.5602592464  MEMB      24              0.0000000000
      4078        76  POPC      H13Y           19.3442561093       -1.3147691330        1.2981557595  MEMB      24              0.0000000000
      4079        76  POPC      C314           18.8499380482       -3.4589757565        1.2723464961  MEMB      24              0.0000000000
      4080        76  POPC      H14X           17.7667037163       -3.2446531142        1.4062569636  MEMB      24              0.0000000000
      4081        76  POPC      H14Y           19.0905002426       -4.3419608908        1.9091960194  MEMB      24              0.0000000000
      4082        76  POPC      C315           19.1065366125       -3.8612847050       -0.1833615685  MEMB      24              0.0000000000
      4083        76  POPC      H15X           20.1650725071       -4.1866202536       -0.2897973704  MEMB      24              0.0000000000
      4084        76  POPC      H15Y           18.9651921899       -2.9894731032       -0.8539232807  MEMB      24              0.0000000000
      4085        76  POPC      C316           18.1774832423       -4.9921654826       -0.6301342694  MEMB      24              0.0000000000
      4086        76  POPC      H16X           17.1294387609       -4.6272654905       -0.7009365172  MEMB      24              0.0000000000
      4087        76  POPC      H16Y           18.2060124861       -5.8303887307        0.0995568129  MEMB      24              0.0000000000
      4088        76  POPC      H16Z           18.4817846030       -5.3758264249       -1.6262174808  MEMB      24              0.0000000000
      4089        77  POPC      N             -22.8714372549      -10.5290221657       20.7225621227  MEMB      25              0.0000000000
      4090        77  POPC      C12           -24.0125643976       -9.5349246247       20.5439708678  MEMB      25              0.0000000000
      4091        77  POPC      H12A          -24.5300019432       -9.4592581943       21.4899474404  MEMB      25              0.0000000000
      4092        77  POPC      H12B          -24.7018222669       -9.9428422619       19.8130180293  MEMB      25              0.0000000000
      4093        77  POPC      C13           -21.6544179738       -9.7850803866       21.1886238260  MEMB      25              0.0000000000
      4094        77  POPC      H13A          -21.9384363128       -9.0997594625       21.9806306949  MEMB      25              0.0000000000
      4095        77  POPC      H13B          -20.9012803241      -10.4651793627       21.5684425041  MEMB      25              0.0000000000
      4096        77  POPC      H13C          -21.2338917282       -9.2009833851       20.3708261036  MEMB      25              0.0000000000
      4097        77  POPC      C14           -23.2167583772      -11.5963903468       21.7164059780  MEMB      25              0.0000000000
      4098        77  POPC      H14A          -24.0237576900      -12.2304028286       21.3510974949  MEMB      25              0.0000000000
      4099        77  POPC      H14B          -22.3628462625      -12.2494984567       21.8768079146  MEMB      25              0.0000000000
      4100        77  POPC      H14C          -23.4937922756      -11.1700775088       22.6737864403  MEMB      25              0.0000000000
      4101        77  POPC      C15           -22.5431573619      -11.1559361476       19.3975401164  MEMB      25              0.0000000000
      4102        77  POPC      H15A          -22.2305865748      -10.3656078330       18.7104963757  MEMB      25              0.0000000000
      4103        77  POPC      H15B          -23.3971573039      -11.6483893411       18.9344912588  MEMB      25              0.0000000000
      4104        77  POPC      H15C          -21.7420845494      -11.8726374486       19.5050487756  MEMB      25              0.0000000000
      4105        77  POPC      C11           -23.6805223688       -8.0793196429       20.0994984004  MEMB      25              0.0000000000
      4106        77  POPC      H11A          -23.0869684777       -7.5746379653       20.8984911699  MEMB      25              0.0000000000
      4107        77  POPC      H11B          -24.6477816705       -7.5329050685       20.0066409696  MEMB      25              0.0000000000
      4108        77  POPC      P             -22.7367634879       -6.6957736313       18.0709097669  MEMB      25              0.0000000000
      4109        77  POPC      O13           -21.6702041446       -6.9404922990       17.0852691400  MEMB      25              0.0000000000
      4110        77  POPC      O14           -22.5447724662       -5.6124569951       19.0632953776  MEMB      25              0.0000000000
      4111        77  POPC      O12           -22.9810879095       -8.0572242707       18.8604144848  MEMB      25              0.0000000000
      4112        77  POPC      O11           -24.1160469753       -6.3904694576       17.3073521370  MEMB      25              0.0000000000
      4113        77  POPC      C1            -25.0675160689       -7.4217055226       17.0071220393  MEMB      25              0.0000000000
      4114        77  POPC      HA            -25.7117371136       -7.5970817401       17.8997295982  MEMB      25              0.0000000000
      4115        77  POPC      HB            -24.5516710823       -8.3873193055       16.7955002949  MEMB      25              0.0000000000
      4116        77  POPC      C2            -26.0708425208       -7.1442973808       15.8069650973  MEMB      25              0.0000000000
      4117        77  POPC      HS            -26.7287918424       -8.0454334097       15.7816794385  MEMB      25              0.0000000000
      4118        77  POPC      O21           -25.4666422285       -6.9510741558       14.5175201784  MEMB      25              0.0000000000
      4119        77  POPC      C21           -24.7231624325       -7.8862663660       13.9931309757  MEMB      25              0.0000000000
      4120        77  POPC      O22           -24.4492490146       -8.9708912170       14.4664505751  MEMB      25              0.0000000000
      4121        77  POPC      C22           -24.2433880753       -7.3575018373       12.6248189380  MEMB      25              0.0000000000
      4122        77  POPC      H2R           -23.2618919620       -7.8524899934       12.4664982427  MEMB      25              0.0000000000
      4123        77  POPC      H2S           -24.0817499773       -6.2659411477       12.6974462812  MEMB      25              0.0000000000
      4124        77  POPC      C3            -27.0283800095       -5.9108358784       15.9900063292  MEMB      25              0.0000000000
      4125        77  POPC      HX            -27.3922248351       -5.9223428337       17.0398947739  MEMB      25              0.0000000000
      4126        77  POPC      HY            -27.9290980538       -6.0874683346       15.3536076650  MEMB      25              0.0000000000
      4127        77  POPC      O31           -26.3969171653       -4.6310481478       15.6989119878  MEMB      25              0.0000000000
      4128        77  POPC      C31           -26.4567614064       -4.2046530317       14.4220702429  MEMB      25              0.0000000000
      4129        77  POPC      O32           -27.3161137572       -4.5335266453       13.6269298485  MEMB      25              0.0000000000
      4130        77  POPC      C32           -25.1965313500       -3.3623530852       14.1171124242  MEMB      25              0.0000000000
      4131        77  POPC      H2X           -25.3396329241       -2.3505954539       14.5436182057  MEMB      25              0.0000000000
      4132        77  POPC      H2Y           -25.1395118945       -3.2702385872       13.0127965739  MEMB      25              0.0000000000
      4133        77  POPC      C23           -25.1529936214       -7.6539548111       11.3951037122  MEMB      25              0.0000000000
      4134        77  POPC      H3R           -25.5799563547       -8.6730463900       11.4852130894  MEMB      25              0.0000000000
      4135        77  POPC      H3S           -24.5002185553       -7.6892456647       10.4935848836  MEMB      25              0.0000000000
      4136        77  POPC      C24           -26.2527963798       -6.6009390088       11.0928625538  MEMB      25              0.0000000000
      4137        77  POPC      H4R           -25.8117917820       -5.5818077314       11.0452472434  MEMB      25              0.0000000000
      4138        77  POPC      H4S           -26.9963512670       -6.6045420740       11.9167681604  MEMB      25              0.0000000000
      4139        77  POPC      C25           -26.9614484657       -6.8951338855        9.7553136174  MEMB      25              0.0000000000
      4140        77  POPC      H5R           -27.2245396227       -7.9586357997        9.7744935399  MEMB      25              0.0000000000
      4141        77  POPC      H5S           -26.2684002993       -6.7304129174        8.9026726833  MEMB      25              0.0000000000
      4142        77  POPC      C26           -28.3304622768       -6.2624918684        9.4718503630  MEMB      25              0.0000000000
      4143        77  POPC      H6R           -28.2249171832       -5.1790472263        9.2678991368  MEMB      25              0.0000000000
      4144        77  POPC      H6S           -28.9769664762       -6.3747931242       10.3704484221  MEMB      25              0.0000000000
      4145        77  POPC      C27           -29.0242730207       -6.9877446240        8.2915854983  MEMB      25              0.0000000000
      4146        77  POPC      H7R           -30.0629456227       -6.6256760392        8.1639223851  MEMB      25              0.0000000000
      4147        77  POPC      H7S           -29.1167657985       -8.0689931397        8.5444655084  MEMB      25              0.0000000000
      4148        77  POPC      C28           -28.2947345403       -6.8836023200        6.9332252886  MEMB      25              0.0000000000
      4149        77  POPC      H8R           -28.9472571114       -7.3736911221        6.1738452817  MEMB      25              0.0000000000
      4150        77  POPC      H8S           -27.3646613206       -7.4923578692        6.9939053335  MEMB      25              0.0000000000
      4151        77  POPC      C29           -27.9829281726       -5.4694841909        6.5012442037  MEMB      25              0.0000000000
      4152        77  POPC      H91           -28.6293781530       -4.6936326597        6.9323716158  MEMB      25              0.0000000000
      4153        77  POPC      C210          -27.0243129147       -5.0925852091        5.6352376512  MEMB      25              0.0000000000
      4154        77  POPC      H101          -26.8938988492       -4.0225030591        5.4086726896  MEMB      25              0.0000000000
      4155        77  POPC      C211          -26.0744936400       -6.0184115926        4.9224685845  MEMB      25              0.0000000000
      4156        77  POPC      H11R          -25.5538060392       -6.6782397834        5.6564029054  MEMB      25              0.0000000000
      4157        77  POPC      H11S          -25.2819710609       -5.4446791749        4.3934028257  MEMB      25              0.0000000000
      4158        77  POPC      C212          -26.7909216383       -6.9219946303        3.9040635583  MEMB      25              0.0000000000
      4159        77  POPC      H12R          -27.5587540079       -7.5351846164        4.4271331375  MEMB      25              0.0000000000
      4160        77  POPC      H12S          -26.0271006426       -7.6082138762        3.4762797362  MEMB      25              0.0000000000
      4161        77  POPC      C213          -27.4521076411       -6.2293995314        2.7120167314  MEMB      25              0.0000000000
      4162        77  POPC      H13R          -27.8645496945       -5.2390167542        2.9978072887  MEMB      25              0.0000000000
      4163        77  POPC      H13S          -28.3088314568       -6.8685498627        2.3913356927  MEMB      25              0.0000000000
      4164        77  POPC      C214          -26.4716776533       -6.1170525232        1.5424295419  MEMB      25              0.0000000000
      4165        77  POPC      H14R          -26.1593533958       -7.1451786907        1.2431787646  MEMB      25              0.0000000000
      4166        77  POPC      H14S          -25.5602294160       -5.5761167915        1.8835843388  MEMB      25              0.0000000000
      4167        77  POPC      C215          -27.0551668383       -5.4103278184        0.3189333755  MEMB      25              0.0000000000
      4168        77  POPC      H15R          -26.3016132867       -5.4600434592       -0.4950269356  MEMB      25              0.0000000000
      4169        77  POPC      H15S          -27.2169001931       -4.3381016666        0.5596759294  MEMB      25              0.0000000000
      4170        77  POPC      C216          -28.3661672858       -6.0291115153       -0.1799955411  MEMB      25              0.0000000000
      4171        77  POPC      H16R          -29.1765580032       -5.7855364845        0.5440517589  MEMB      25              0.0000000000
      4172        77  POPC      H16S          -28.2646405869       -7.1366799129       -0.2183232728  MEMB      25              0.0000000000
      4173        77  POPC      C217          -28.7709297583       -5.5246683145       -1.5689378195  MEMB      25              0.0000000000
      4174        77  POPC      H17R          -28.2705301313       -4.5503187263       -1.7610674830  MEMB      25              0.0000000000
      4175        77  POPC      H17S          -29.8626509574       -5.3206055621       -1.5699058800  MEMB      25              0.0000000000
      4176        77  POPC      C218          -28.4639665887       -6.5274907080       -2.6840129717  MEMB      25              0.0000000000
      4177        77  POPC      H18R          -27.3698211681       -6.7011431849       -2.7644193037  MEMB      25              0.0000000000
      4178        77  POPC      H18S          -28.8255270196       -6.1456504085       -3.6624788750  MEMB      25              0.0000000000
      4179        77  POPC      H18T          -28.9583823763       -7.5012121656       -2.4847102609  MEMB      25              0.0000000000
      4180        77  POPC      C33           -23.8766695246       -3.9979612333       14.6517555488  MEMB      25              0.0000000000
      4181        77  POPC      H3X           -23.9190781294       -5.1038499712       14.5910989119  MEMB      25              0.0000000000
      4182        77  POPC      H3Y           -23.7650904502       -3.7705041352       15.7271351316  MEMB      25              0.0000000000
      4183        77  POPC      C34           -22.5754280790       -3.5223791601       13.9805992959  MEMB      25              0.0000000000
      4184        77  POPC      H4X           -21.9095619036       -3.1149223741       14.7752534448  MEMB      25              0.0000000000
      4185        77  POPC      H4Y           -22.8082259874       -2.7190642699       13.2578306730  MEMB      25              0.0000000000
      4186        77  POPC      C35           -21.7708727484       -4.5979991348       13.2454009008  MEMB      25              0.0000000000
      4187        77  POPC      H5X           -21.9735122463       -5.5916276532       13.7060167035  MEMB      25              0.0000000000
      4188        77  POPC      H5Y           -20.6770249853       -4.3957478067       13.3517785936  MEMB      25              0.0000000000
      4189        77  POPC      C36           -22.1030150740       -4.6022084883       11.7520288206  MEMB      25              0.0000000000
      4190        77  POPC      H6X           -21.7165480869       -3.6758413644       11.2688678596  MEMB      25              0.0000000000
      4191        77  POPC      H6Y           -23.2112068280       -4.6000585558       11.6383232756  MEMB      25              0.0000000000
      4192        77  POPC      C37           -21.5378305384       -5.8252339433       11.0385474235  MEMB      25              0.0000000000
      4193        77  POPC      H7X           -21.6629471882       -6.7229794063       11.6809510108  MEMB      25              0.0000000000
      4194        77  POPC      H7Y           -20.4439970002       -5.6893913199       10.8901151925  MEMB      25              0.0000000000
      4195        77  POPC      C38           -22.2495115516       -6.0382414346        9.7022485931  MEMB      25              0.0000000000
      4196        77  POPC      H8X           -22.0702873117       -5.1376602136        9.0717380559  MEMB      25              0.0000000000
      4197        77  POPC      H8Y           -23.3473019564       -6.1052355667        9.8542805792  MEMB      25              0.0000000000
      4198        77  POPC      C39           -21.7548317941       -7.2825786919        8.9701877725  MEMB      25              0.0000000000
      4199        77  POPC      H9X           -22.2349691508       -8.1981952547        9.3790098007  MEMB      25              0.0000000000
      4200        77  POPC      H9Y           -20.6640831250       -7.3782562194        9.1555555723  MEMB      25              0.0000000000
      4201        77  POPC      C310          -21.9898782736       -7.1695668381        7.4613143170  MEMB      25              0.0000000000
      4202        77  POPC      H10X          -21.5879137764       -6.1964326683        7.0978006709  MEMB      25              0.0000000000
      4203        77  POPC      H10Y          -23.0884125649       -7.1784915230        7.2702147569  MEMB      25              0.0000000000
      4204        77  POPC      C311          -21.3166761865       -8.3025255895        6.6836035264  MEMB      25              0.0000000000
      4205        77  POPC      H11X          -21.7470499862       -9.2584682921        7.0686104306  MEMB      25              0.0000000000
      4206        77  POPC      H11Y          -20.2251492517       -8.3371701647        6.8654884133  MEMB      25              0.0000000000
      4207        77  POPC      C312          -21.5993339142       -8.2446097042        5.1811262247  MEMB      25              0.0000000000
      4208        77  POPC      H12X          -22.6882828155       -8.0471462402        5.0716623604  MEMB      25              0.0000000000
      4209        77  POPC      H12Y          -21.3723535130       -9.2531737625        4.7663309479  MEMB      25              0.0000000000
      4210        77  POPC      C313          -20.8540870045       -7.2248339770        4.3022208842  MEMB      25              0.0000000000
      4211        77  POPC      H13X          -19.7723099890       -7.4781775922        4.2676608711  MEMB      25              0.0000000000
      4212        77  POPC      H13Y          -20.9584290006       -6.1954950395        4.7093059256  MEMB      25              0.0000000000
      4213        77  POPC      C314          -21.4586849443       -7.3000927569        2.8877498253  MEMB      25              0.0000000000
      4214        77  POPC      H14X          -22.4838150480       -6.8654820767        2.9154338309  MEMB      25              0.0000000000
      4215        77  POPC      H14Y          -21.5630501648       -8.3770843078        2.6205492677  MEMB      25              0.0000000000
      4216        77  POPC      C315          -20.6699316188       -6.6457697795        1.7524659082  MEMB      25              0.0000000000
      4217        77  POPC      H15X          -19.6408160810       -7.0699422439        1.7221654686  MEMB      25              0.0000000000
      4218        77  POPC      H15Y          -20.5924171783       -5.5554904741        1.9381248541  MEMB      25              0.0000000000
      4219        77  POPC      C316          -21.3518668881       -6.8752433450        0.4012608695  MEMB      25              0.0000000000
      4220        77  POPC      H16X          -20.7396209612       -6.4721771804       -0.4335622650  MEMB      25              0.0000000000
      4221        77  POPC      H16Y          -22.3461503808       -6.3790476366        0.3870934771  MEMB      25              0.0000000000
      4222        77  POPC      H16Z          -21.5048246040       -7.9641904245        0.2298700293  MEMB      25              0.0000000000
      4223        78  POPC      N              12.0709912570      -25.8521842673       20.2150689121  MEMB      26              0.0000000000
      4224        78  POPC      C12            10.7957216167      -26.6211062249       19.8513380745  MEMB      26              0.0000000000
      4225        78  POPC      H12A           10.8441923029      -27.5893648166       20.3291428654  MEMB      26              0.0000000000
      4226        78  POPC      H12B           10.7758583998      -26.7780167268       18.7775594452  MEMB      26              0.0000000000
      4227        78  POPC      C13            12.2768495072      -24.7771711951       19.1939627604  MEMB      26              0.0000000000
      4228        78  POPC      H13A           13.1471910404      -24.1836612217       19.4227556773  MEMB      26              0.0000000000
      4229        78  POPC      H13B           12.3727146976      -25.1953937821       18.2055279223  MEMB      26              0.0000000000
      4230        78  POPC      H13C           11.3810122723      -24.1437920865       19.1737687724  MEMB      26              0.0000000000
      4231        78  POPC      C14            12.0239010130      -25.1958461449       21.5658706641  MEMB      26              0.0000000000
      4232        78  POPC      H14A           11.2896626601      -24.3964032968       21.5837154585  MEMB      26              0.0000000000
      4233        78  POPC      H14B           11.7978810104      -25.8928262748       22.3675226722  MEMB      26              0.0000000000
      4234        78  POPC      H14C           12.9962662281      -24.7674067262       21.8210983504  MEMB      26              0.0000000000
      4235        78  POPC      C15            13.2474647707      -26.7663651580       20.2663632296  MEMB      26              0.0000000000
      4236        78  POPC      H15A           13.4851288065      -27.1984954084       19.3046766124  MEMB      26              0.0000000000
      4237        78  POPC      H15B           13.0965931051      -27.5620389025       20.9900975538  MEMB      26              0.0000000000
      4238        78  POPC      H15C           14.1334994640      -26.2254402862       20.5999816720  MEMB      26              0.0000000000
      4239        78  POPC      C11             9.3982389419      -26.0232887067       20.1621712880  MEMB      26              0.0000000000
      4240        78  POPC      H11A            9.3236228306      -25.9376813712       21.2593787136  MEMB      26              0.0000000000
      4241        78  POPC      H11B            8.6150648076      -26.7431139734       19.8233264151  MEMB      26              0.0000000000
      4242        78  POPC      P               8.1807631619      -24.3926887728       18.4243518155  MEMB      26              0.0000000000
      4243        78  POPC      O13             6.9209017610      -23.8510523368       19.0084489281  MEMB      26              0.0000000000
      4244        78  POPC      O14             8.0504492470      -25.5548999019       17.5104874582  MEMB      26              0.0000000000
      4245        78  POPC      O12             9.2157031188      -24.7425960765       19.5908121203  MEMB      26              0.0000000000
      4246        78  POPC      O11             8.9665509328      -23.2105374817       17.7438332787  MEMB      26              0.0000000000
      4247        78  POPC      C1              9.5539508668      -23.3171305350       16.4582646975  MEMB      26              0.0000000000
      4248        78  POPC      HA              9.4552338764      -24.3204641217       15.9783793054  MEMB      26              0.0000000000
      4249        78  POPC      HB             10.6402074400      -23.1139122507       16.5671415400  MEMB      26              0.0000000000
      4250        78  POPC      C2              8.9389687238      -22.2577064507       15.5211949696  MEMB      26              0.0000000000
      4251        78  POPC      HS              8.8049359003      -21.3212005490       16.1135955917  MEMB      26              0.0000000000
      4252        78  POPC      O21             7.6563656210      -22.7390188617       15.0317706544  MEMB      26              0.0000000000
      4253        78  POPC      C21             7.0433835843      -21.9052277440       14.2020819649  MEMB      26              0.0000000000
      4254        78  POPC      O22             7.4955239818      -20.8378278480       13.8429345055  MEMB      26              0.0000000000
      4255        78  POPC      C22             5.6549124642      -22.4007036187       13.8050248986  MEMB      26              0.0000000000
      4256        78  POPC      H2R             4.9361037485      -21.5690680153       13.9382456687  MEMB      26              0.0000000000
      4257        78  POPC      H2S             5.3641788564      -23.2195046154       14.4972941303  MEMB      26              0.0000000000
      4258        78  POPC      C3              9.9701012761      -21.9852867524       14.3875009819  MEMB      26              0.0000000000
      4259        78  POPC      HX             10.9639657306      -21.8352636674       14.8581106195  MEMB      26              0.0000000000
      4260        78  POPC      HY              9.7309729131      -21.0185543094       13.8865202400  MEMB      26              0.0000000000
      4261        78  POPC      O31            10.0235127984      -23.1149641258       13.4944432003  MEMB      26              0.0000000000
      4262        78  POPC      C31            10.3402985284      -22.7768538952       12.2539335390  MEMB      26              0.0000000000
      4263        78  POPC      O32            10.6852354016      -21.6684570566       11.8896531005  MEMB      26              0.0000000000
      4264        78  POPC      C32            10.1195235565      -23.9562996760       11.3176123399  MEMB      26              0.0000000000
      4265        78  POPC      H2X             9.8277656762      -23.5114954610       10.3440761816  MEMB      26              0.0000000000
      4266        78  POPC      H2Y             9.2726333549      -24.5632399089       11.6940942322  MEMB      26              0.0000000000
      4267        78  POPC      C23             5.5798898133      -22.9306919367       12.3529235819  MEMB      26              0.0000000000
      4268        78  POPC      H3R             4.5598205015      -23.3716434977       12.2420337534  MEMB      26              0.0000000000
      4269        78  POPC      H3S             6.3339411525      -23.7343275658       12.2411037600  MEMB      26              0.0000000000
      4270        78  POPC      C24             5.7494638338      -21.9468684182       11.1818036319  MEMB      26              0.0000000000
      4271        78  POPC      H4R             5.3504546792      -20.9455558828       11.4276631350  MEMB      26              0.0000000000
      4272        78  POPC      H4S             5.1407701063      -22.3308775976       10.3288795662  MEMB      26              0.0000000000
      4273        78  POPC      C25             7.1994412849      -21.8775550460       10.6863529372  MEMB      26              0.0000000000
      4274        78  POPC      H5R             7.5690186644      -22.9163208061       10.5376686579  MEMB      26              0.0000000000
      4275        78  POPC      H5S             7.8379322988      -21.4016313990       11.4618507484  MEMB      26              0.0000000000
      4276        78  POPC      C26             7.3950469885      -21.1261229746        9.3636550877  MEMB      26              0.0000000000
      4277        78  POPC      H6R             7.0759204805      -20.0676069702        9.4713087023  MEMB      26              0.0000000000
      4278        78  POPC      H6S             6.7687371309      -21.5862592726        8.5678553647  MEMB      26              0.0000000000
      4279        78  POPC      C27             8.8703307988      -21.1712145327        8.9478915885  MEMB      26              0.0000000000
      4280        78  POPC      H7R             9.1553555659      -22.2380035545        8.7984015398  MEMB      26              0.0000000000
      4281        78  POPC      H7S             9.4937114233      -20.7579653797        9.7743638567  MEMB      26              0.0000000000
      4282        78  POPC      C28             9.1488744231      -20.4124164817        7.6502891375  MEMB      26              0.0000000000
      4283        78  POPC      H8R             8.8406807683      -19.3488518586        7.7678664554  MEMB      26              0.0000000000
      4284        78  POPC      H8S             8.4817261219      -20.8605416553        6.8846013835  MEMB      26              0.0000000000
      4285        78  POPC      C29            10.6111750541      -20.4888658073        7.2791587402  MEMB      26              0.0000000000
      4286        78  POPC      H91            11.2543617475      -19.8048120330        7.8517005172  MEMB      26              0.0000000000
      4287        78  POPC      C210           11.1904524939      -21.2839721839        6.3579225465  MEMB      26              0.0000000000
      4288        78  POPC      H101           12.2790404633      -21.2113330658        6.2146260106  MEMB      26              0.0000000000
      4289        78  POPC      C211           10.5128885276      -22.2966359099        5.4708113344  MEMB      26              0.0000000000
      4290        78  POPC      H11R            9.5565303628      -22.6552250941        5.9151341115  MEMB      26              0.0000000000
      4291        78  POPC      H11S           11.1631887579      -23.1936930965        5.3568882731  MEMB      26              0.0000000000
      4292        78  POPC      C212           10.2224040554      -21.7284474474        4.0684111570  MEMB      26              0.0000000000
      4293        78  POPC      H12R            9.7456212608      -22.5409534373        3.4779155322  MEMB      26              0.0000000000
      4294        78  POPC      H12S           11.1692739410      -21.4713136014        3.5443648722  MEMB      26              0.0000000000
      4295        78  POPC      C213            9.3100457898      -20.4897934068        4.1076838365  MEMB      26              0.0000000000
      4296        78  POPC      H13R            9.9299450246      -19.5804572295        4.2741592299  MEMB      26              0.0000000000
      4297        78  POPC      H13S            8.6063196809      -20.5788568579        4.9574075360  MEMB      26              0.0000000000
      4298        78  POPC      C214            8.4222378536      -20.3052635354        2.8788290550  MEMB      26              0.0000000000
      4299        78  POPC      H14R            9.0703427302      -20.3139522928        1.9791813757  MEMB      26              0.0000000000
      4300        78  POPC      H14S            7.9272974484      -19.3093233707        2.9347578460  MEMB      26              0.0000000000
      4301        78  POPC      C215            7.3293190594      -21.3803263026        2.8004123249  MEMB      26              0.0000000000
      4302        78  POPC      H15R            6.7315239512      -21.3765155619        3.7409987550  MEMB      26              0.0000000000
      4303        78  POPC      H15S            7.8074035220      -22.3831926010        2.7454413878  MEMB      26              0.0000000000
      4304        78  POPC      C216            6.3885385293      -21.2394910805        1.5971453204  MEMB      26              0.0000000000
      4305        78  POPC      H16R            5.4057245576      -20.8300289815        1.9138362225  MEMB      26              0.0000000000
      4306        78  POPC      H16S            6.2062583840      -22.2560776437        1.2137418475  MEMB      26              0.0000000000
      4307        78  POPC      C217            6.9396416085      -20.4513862185        0.4047092626  MEMB      26              0.0000000000
      4308        78  POPC      H17R            7.9943315872      -20.7303614242        0.2175284994  MEMB      26              0.0000000000
      4309        78  POPC      H17S            6.9461118210      -19.3739482527        0.6546893973  MEMB      26              0.0000000000
      4310        78  POPC      C218            6.1506768216      -20.7073998561       -0.8775168618  MEMB      26              0.0000000000
      4311        78  POPC      H18R            5.0878141302      -20.4393276832       -0.7282084620  MEMB      26              0.0000000000
      4312        78  POPC      H18S            6.2132171996      -21.7790742479       -1.1643834760  MEMB      26              0.0000000000
      4313        78  POPC      H18T            6.5517808121      -20.1079765750       -1.7166688614  MEMB      26              0.0000000000
      4314        78  POPC      C33            11.3752659968      -24.8297667435       11.1008550453  MEMB      26              0.0000000000
      4315        78  POPC      H3X            11.4769234882      -25.5353550616       11.9567323013  MEMB      26              0.0000000000
      4316        78  POPC      H3Y            12.2938764805      -24.1995900844       11.0695047806  MEMB      26              0.0000000000
      4317        78  POPC      C34            11.3075829278      -25.6191191955        9.7828240609  MEMB      26              0.0000000000
      4318        78  POPC      H4X            12.1233362631      -26.3772689941        9.7831489532  MEMB      26              0.0000000000
      4319        78  POPC      H4Y            11.4953762404      -24.9193019283        8.9358435216  MEMB      26              0.0000000000
      4320        78  POPC      C35             9.9517166287      -26.3079074863        9.5541763207  MEMB      26              0.0000000000
      4321        78  POPC      H5X             9.1640940405      -25.5443913343        9.3627442448  MEMB      26              0.0000000000
      4322        78  POPC      H5Y             9.6681792079      -26.8576949098       10.4804280893  MEMB      26              0.0000000000
      4323        78  POPC      C36             9.9632994365      -27.2966234225        8.3824554391  MEMB      26              0.0000000000
      4324        78  POPC      H6X             8.9928903310      -27.8448759177        8.3676131234  MEMB      26              0.0000000000
      4325        78  POPC      H6Y            10.7701175008      -28.0452253199        8.5502307395  MEMB      26              0.0000000000
      4326        78  POPC      C37            10.1641512535      -26.6384554378        7.0095024448  MEMB      26              0.0000000000
      4327        78  POPC      H7X            11.1624210404      -26.1484847586        6.9775487251  MEMB      26              0.0000000000
      4328        78  POPC      H7Y             9.3935619346      -25.8507563239        6.8505177087  MEMB      26              0.0000000000
      4329        78  POPC      C38            10.0806277006      -27.6701303297        5.8806016644  MEMB      26              0.0000000000
      4330        78  POPC      H8X             9.0279045230      -28.0109111089        5.7510179571  MEMB      26              0.0000000000
      4331        78  POPC      H8Y            10.6878766945      -28.5568759723        6.1749615188  MEMB      26              0.0000000000
      4332        78  POPC      C39            10.6448525573      -27.1799525509        4.5443708685  MEMB      26              0.0000000000
      4333        78  POPC      H9X            10.7062397457      -28.0761213039        3.8824314144  MEMB      26              0.0000000000
      4334        78  POPC      H9Y            11.6826866458      -26.8040319686        4.6802561204  MEMB      26              0.0000000000
      4335        78  POPC      C310            9.7984407689      -26.1199242036        3.8274685140  MEMB      26              0.0000000000
      4336        78  POPC      H10X           10.0898539531      -25.0983797586        4.1590073831  MEMB      26              0.0000000000
      4337        78  POPC      H10Y            8.7240977595      -26.2680625591        4.0812344171  MEMB      26              0.0000000000
      4338        78  POPC      C311            9.9616145527      -26.2548117752        2.3096953721  MEMB      26              0.0000000000
      4339        78  POPC      H11X            9.1749861531      -25.6756135802        1.7775251187  MEMB      26              0.0000000000
      4340        78  POPC      H11Y            9.8167694236      -27.3261633786        2.0383153473  MEMB      26              0.0000000000
      4341        78  POPC      C312           11.3461334426      -25.8133068681        1.8163253659  MEMB      26              0.0000000000
      4342        78  POPC      H12X           12.1421544386      -26.1351394570        2.5220919575  MEMB      26              0.0000000000
      4343        78  POPC      H12Y           11.3726929518      -24.7041266981        1.8014341559  MEMB      26              0.0000000000
      4344        78  POPC      C313           11.6528952301      -26.4117673493        0.4385470817  MEMB      26              0.0000000000
      4345        78  POPC      H13X           10.7322370343      -26.3655497623       -0.1861783686  MEMB      26              0.0000000000
      4346        78  POPC      H13Y           11.9059269645      -27.4885385215        0.5717957041  MEMB      26              0.0000000000
      4347        78  POPC      C314           12.7794876956      -25.7094433212       -0.3333829166  MEMB      26              0.0000000000
      4348        78  POPC      H14X           12.9319079114      -26.3045721633       -1.2609999168  MEMB      26              0.0000000000
      4349        78  POPC      H14Y           13.7178156051      -25.7165425589        0.2580534226  MEMB      26              0.0000000000
      4350        78  POPC      C315           12.4148136285      -24.2696521939       -0.7124577525  MEMB      26              0.0000000000
      4351        78  POPC      H15X           12.3147619314      -23.6670317317        0.2169302545  MEMB      26              0.0000000000
      4352        78  POPC      H15Y           11.4164427264      -24.3465803513       -1.1872383899  MEMB      26              0.0000000000
      4353        78  POPC      C316           13.3427711643      -23.5217596096       -1.6747509820  MEMB      26              0.0000000000
      4354        78  POPC      H16X           13.3677099115      -24.0168263362       -2.6694984548  MEMB      26              0.0000000000
      4355        78  POPC      H16Y           14.3726227933      -23.4645334894       -1.2668121445  MEMB      26              0.0000000000
      4356        78  POPC      H16Z           12.9752790967      -22.4837203734       -1.8269020944  MEMB      26              0.0000000000
      4357        79  POPC      N              19.5741120454      -11.6276195365       21.1042705500  MEMB      27              0.0000000000
      4358        79  POPC      C12            18.5099875678      -11.1767712749       20.1147457166  MEMB      27              0.0000000000
      4359        79  POPC      H12A           17.5335467750      -11.3185822327       20.5539895789  MEMB      27              0.0000000000
      4360        79  POPC      H12B           18.5758761447      -11.8046928521       19.2247648666  MEMB      27              0.0000000000
      4361        79  POPC      C13            20.8715687201      -11.8094722451       20.3819202940  MEMB      27              0.0000000000
      4362        79  POPC      H13A           20.7883538305      -12.6283166420       19.6722869783  MEMB      27              0.0000000000
      4363        79  POPC      H13B           21.0702092855      -10.9277680695       19.7669339469  MEMB      27              0.0000000000
      4364        79  POPC      H13C           21.6802485254      -11.9819908112       21.0624631846  MEMB      27              0.0000000000
      4365        79  POPC      C14            19.7149348747      -10.5958588341       22.1710243634  MEMB      27              0.0000000000
      4366        79  POPC      H14A           20.4390373099      -10.9138325967       22.9096570734  MEMB      27              0.0000000000
      4367        79  POPC      H14B           19.9928557601       -9.6437626068       21.7270069575  MEMB      27              0.0000000000
      4368        79  POPC      H14C           18.7974837661      -10.4398810243       22.7246398626  MEMB      27              0.0000000000
      4369        79  POPC      C15            19.1744568512      -12.9266513289       21.7351907406  MEMB      27              0.0000000000
      4370        79  POPC      H15A           19.9183992177      -13.2573276722       22.4644719373  MEMB      27              0.0000000000
      4371        79  POPC      H15B           19.0318017742      -13.7122572057       20.9988284094  MEMB      27              0.0000000000
      4372        79  POPC      H15C           18.2539892489      -12.8022131700       22.3074924708  MEMB      27              0.0000000000
      4373        79  POPC      C11            18.6236870926       -9.7340299633       19.5710992783  MEMB      27              0.0000000000
      4374        79  POPC      H11A           18.5876424620       -9.0103948651       20.4068241972  MEMB      27              0.0000000000
      4375        79  POPC      H11B           17.7605853042       -9.5152356942       18.8969998075  MEMB      27              0.0000000000
      4376        79  POPC      P              20.1043781970      -10.1437348633       17.4613275017  MEMB      27              0.0000000000
      4377        79  POPC      O13            19.3833844759      -11.4374812913       17.4415439616  MEMB      27              0.0000000000
      4378        79  POPC      O14            21.5718966249      -10.2072677600       17.3005792360  MEMB      27              0.0000000000
      4379        79  POPC      O12            19.8565530807       -9.5327133877       18.8987156788  MEMB      27              0.0000000000
      4380        79  POPC      O11            19.4309469102       -9.1231947427       16.4610027998  MEMB      27              0.0000000000
      4381        79  POPC      C1             18.9976670119       -7.8321466839       16.8908077327  MEMB      27              0.0000000000
      4382        79  POPC      HA             19.3475255020       -7.5494584534       17.9102252503  MEMB      27              0.0000000000
      4383        79  POPC      HB             17.8892936573       -7.8353698377       16.9251326576  MEMB      27              0.0000000000
      4384        79  POPC      C2             19.4902093899       -6.7116818665       15.9359388820  MEMB      27              0.0000000000
      4385        79  POPC      HS             18.8823350345       -5.8015471095       16.1438072325  MEMB      27              0.0000000000
      4386        79  POPC      O21            19.3497633888       -7.0763610128       14.5569505845  MEMB      27              0.0000000000
      4387        79  POPC      C21            18.1226257829       -7.3459640872       14.1584030722  MEMB      27              0.0000000000
      4388        79  POPC      O22            17.0959646594       -7.1093413801       14.7740219525  MEMB      27              0.0000000000
      4389        79  POPC      C22            18.1760762489       -7.8100513836       12.7019757447  MEMB      27              0.0000000000
      4390        79  POPC      H2R            18.3311947370       -8.9055045146       12.6919057130  MEMB      27              0.0000000000
      4391        79  POPC      H2S            19.0577189077       -7.3233477165       12.2367010423  MEMB      27              0.0000000000
      4392        79  POPC      C3             20.9798944271       -6.3386464527       16.2137418860  MEMB      27              0.0000000000
      4393        79  POPC      HX             21.0591662504       -6.0623889926       17.2868912018  MEMB      27              0.0000000000
      4394        79  POPC      HY             21.2438617428       -5.4298897384       15.6252439669  MEMB      27              0.0000000000
      4395        79  POPC      O31            21.8669124756       -7.4528571258       15.9660318867  MEMB      27              0.0000000000
      4396        79  POPC      C31            22.2012951201       -7.5724546606       14.6836682688  MEMB      27              0.0000000000
      4397        79  POPC      O32            22.2095240636       -6.6519243666       13.8852632725  MEMB      27              0.0000000000
      4398        79  POPC      C32            22.5983468410       -9.0033132504       14.3213276128  MEMB      27              0.0000000000
      4399        79  POPC      H2X            22.8557388507       -9.5448989082       15.2535587966  MEMB      27              0.0000000000
      4400        79  POPC      H2Y            23.4998810675       -8.9214248499       13.6825040473  MEMB      27              0.0000000000
      4401        79  POPC      C23            16.8968750448       -7.4097678115       11.9186800556  MEMB      27              0.0000000000
      4402        79  POPC      H3R            16.6052128655       -6.3645965880       12.1759954158  MEMB      27              0.0000000000
      4403        79  POPC      H3S            16.0593228790       -8.0717654161       12.2376282899  MEMB      27              0.0000000000
      4404        79  POPC      C24            17.0498349444       -7.4691352340       10.3870631992  MEMB      27              0.0000000000
      4405        79  POPC      H4R            16.0423309170       -7.3429389811        9.9277065035  MEMB      27              0.0000000000
      4406        79  POPC      H4S            17.4058185862       -8.4802402497       10.1017309582  MEMB      27              0.0000000000
      4407        79  POPC      C25            17.9699944360       -6.3728051805        9.8116636870  MEMB      27              0.0000000000
      4408        79  POPC      H5R            18.4663688356       -5.8294769771       10.6469506783  MEMB      27              0.0000000000
      4409        79  POPC      H5S            17.3436919271       -5.6271140225        9.2708361752  MEMB      27              0.0000000000
      4410        79  POPC      C26            19.0655732072       -6.8791236055        8.8574701274  MEMB      27              0.0000000000
      4411        79  POPC      H6R            19.6950764099       -6.0114273702        8.5515482431  MEMB      27              0.0000000000
      4412        79  POPC      H6S            18.5982916697       -7.2951101376        7.9366443788  MEMB      27              0.0000000000
      4413        79  POPC      C27            19.9807932259       -7.9539719612        9.4663136653  MEMB      27              0.0000000000
      4414        79  POPC      H7R            19.3943586214       -8.8976530350        9.5475844445  MEMB      27              0.0000000000
      4415        79  POPC      H7S            20.2903089453       -7.6585025129       10.4922563668  MEMB      27              0.0000000000
      4416        79  POPC      C28            21.2453349272       -8.1874116043        8.6211292471  MEMB      27              0.0000000000
      4417        79  POPC      H8R            21.9759769052       -7.3778402098        8.8434440169  MEMB      27              0.0000000000
      4418        79  POPC      H8S            20.9616385800       -8.0825772387        7.5507322856  MEMB      27              0.0000000000
      4419        79  POPC      C29            21.8434173765       -9.5395283089        8.9229272575  MEMB      27              0.0000000000
      4420        79  POPC      H91            21.9222790983       -9.7848862708        9.9941749311  MEMB      27              0.0000000000
      4421        79  POPC      C210           22.2332629534      -10.4438649109        8.0085456594  MEMB      27              0.0000000000
      4422        79  POPC      H101           22.6575393779      -11.4030719702        8.3464595861  MEMB      27              0.0000000000
      4423        79  POPC      C211           22.1376370192      -10.2503705502        6.5168532958  MEMB      27              0.0000000000
      4424        79  POPC      H11R           22.9909171233       -9.6306160243        6.1727875411  MEMB      27              0.0000000000
      4425        79  POPC      H11S           21.2121004136       -9.7006417023        6.2355011880  MEMB      27              0.0000000000
      4426        79  POPC      C212           22.1409941394      -11.5695325617        5.7303497529  MEMB      27              0.0000000000
      4427        79  POPC      H12R           21.2368361679      -12.1595432240        6.0085041704  MEMB      27              0.0000000000
      4428        79  POPC      H12S           23.0370176058      -12.1736184357        5.9987987950  MEMB      27              0.0000000000
      4429        79  POPC      C213           22.1305611148      -11.3418287235        4.2079142164  MEMB      27              0.0000000000
      4430        79  POPC      H13R           21.1895215889      -10.8323168848        3.9254949613  MEMB      27              0.0000000000
      4431        79  POPC      H13S           22.0969645948      -12.3352196432        3.7204328299  MEMB      27              0.0000000000
      4432        79  POPC      C214           23.3291640139      -10.5257112294        3.6807472178  MEMB      27              0.0000000000
      4433        79  POPC      H14R           24.2044403605      -10.7474573409        4.3319902433  MEMB      27              0.0000000000
      4434        79  POPC      H14S           23.1109318478       -9.4397419031        3.7791246758  MEMB      27              0.0000000000
      4435        79  POPC      C215           23.7114417417      -10.8431063752        2.2223500634  MEMB      27              0.0000000000
      4436        79  POPC      H15R           23.1717642797      -10.1740705096        1.5236824863  MEMB      27              0.0000000000
      4437        79  POPC      H15S           23.3679039193      -11.8763352848        2.0004160849  MEMB      27              0.0000000000
      4438        79  POPC      C216           25.2294956358      -10.7991086000        1.9594828248  MEMB      27              0.0000000000
      4439        79  POPC      H16R           25.7141408221      -11.3491369624        2.7989417469  MEMB      27              0.0000000000
      4440        79  POPC      H16S           25.6107482015       -9.7576172846        1.9880472844  MEMB      27              0.0000000000
      4441        79  POPC      C217           25.6586495393      -11.5102744372        0.6592143457  MEMB      27              0.0000000000
      4442        79  POPC      H17R           25.0208255174      -12.4086508284        0.4985297127  MEMB      27              0.0000000000
      4443        79  POPC      H17S           26.7055412233      -11.8713015875        0.7834831070  MEMB      27              0.0000000000
      4444        79  POPC      C218           25.5949753413      -10.6405570087       -0.5910728016  MEMB      27              0.0000000000
      4445        79  POPC      H18R           24.5503162771      -10.3341598929       -0.7688260843  MEMB      27              0.0000000000
      4446        79  POPC      H18S           25.9501538951      -11.1917527286       -1.4867917648  MEMB      27              0.0000000000
      4447        79  POPC      H18T           26.2105476305       -9.7301647989       -0.4783110423  MEMB      27              0.0000000000
      4448        79  POPC      C33            21.4905470079       -9.7677235287       13.5498966096  MEMB      27              0.0000000000
      4449        79  POPC      H3X            21.1469887863       -9.1808691477       12.6700698365  MEMB      27              0.0000000000
      4450        79  POPC      H3Y            20.6173631394       -9.8936606545       14.2322347109  MEMB      27              0.0000000000
      4451        79  POPC      C34            21.9469500442      -11.1608540657       13.0853340054  MEMB      27              0.0000000000
      4452        79  POPC      H4X            22.5224224508      -11.6265667026       13.9185514993  MEMB      27              0.0000000000
      4453        79  POPC      H4Y            22.6260535583      -11.0623718308       12.2120782878  MEMB      27              0.0000000000
      4454        79  POPC      C35            20.7869752234      -12.1065002098       12.7340576948  MEMB      27              0.0000000000
      4455        79  POPC      H5X            20.0907031037      -12.1443447516       13.6030378136  MEMB      27              0.0000000000
      4456        79  POPC      H5Y            21.1852445167      -13.1362575436       12.5834932110  MEMB      27              0.0000000000
      4457        79  POPC      C36            20.0073358476      -11.6926469565       11.4804535556  MEMB      27              0.0000000000
      4458        79  POPC      H6X            20.6849972306      -11.7419123707       10.5997202738  MEMB      27              0.0000000000
      4459        79  POPC      H6Y            19.6684800457      -10.6376384169       11.5836720655  MEMB      27              0.0000000000
      4460        79  POPC      C37            18.7759998362      -12.5815081664       11.2453399644  MEMB      27              0.0000000000
      4461        79  POPC      H7X            18.1389751780      -12.5407316553       12.1588586493  MEMB      27              0.0000000000
      4462        79  POPC      H7Y            19.0989561082      -13.6374180834       11.1090813565  MEMB      27              0.0000000000
      4463        79  POPC      C38            17.9409790149      -12.1464391579       10.0316819318  MEMB      27              0.0000000000
      4464        79  POPC      H8X            17.6745470568      -11.0738876994       10.1518564774  MEMB      27              0.0000000000
      4465        79  POPC      H8Y            16.9919461979      -12.7283274800       10.0162241703  MEMB      27              0.0000000000
      4466        79  POPC      C39            18.6753243303      -12.3555384465        8.6982850009  MEMB      27              0.0000000000
      4467        79  POPC      H9X            18.9222266377      -13.4356754572        8.5963763164  MEMB      27              0.0000000000
      4468        79  POPC      H9Y            19.6317132233      -11.7880472647        8.6997469761  MEMB      27              0.0000000000
      4469        79  POPC      C310           17.8714306239      -11.9075439287        7.4730975475  MEMB      27              0.0000000000
      4470        79  POPC      H10X           16.8732559874      -12.3992748143        7.4874984401  MEMB      27              0.0000000000
      4471        79  POPC      H10Y           18.4045915663      -12.2410357184        6.5538934101  MEMB      27              0.0000000000
      4472        79  POPC      C311           17.6981472462      -10.3829991429        7.4045332014  MEMB      27              0.0000000000
      4473        79  POPC      H11X           18.6868138606       -9.8783278637        7.3798383003  MEMB      27              0.0000000000
      4474        79  POPC      H11Y           17.1709254029      -10.0483639227        8.3259770686  MEMB      27              0.0000000000
      4475        79  POPC      C312           16.8429874435       -9.9536994843        6.2116049421  MEMB      27              0.0000000000
      4476        79  POPC      H12X           16.4116883809       -8.9445841847        6.3970388929  MEMB      27              0.0000000000
      4477        79  POPC      H12Y           16.0095787756      -10.6785196442        6.1730885267  MEMB      27              0.0000000000
      4478        79  POPC      C313           17.5409368844       -9.9531120177        4.8439530220  MEMB      27              0.0000000000
      4479        79  POPC      H13X           16.7550051089       -9.9070524292        4.0549165830  MEMB      27              0.0000000000
      4480        79  POPC      H13Y           18.1025560771      -10.9008390969        4.6990262800  MEMB      27              0.0000000000
      4481        79  POPC      C314           18.4754920400       -8.7500059765        4.6761439246  MEMB      27              0.0000000000
      4482        79  POPC      H14X           19.2516031003       -8.7975176903        5.4732412192  MEMB      27              0.0000000000
      4483        79  POPC      H14Y           17.8959112689       -7.8137236497        4.8336415962  MEMB      27              0.0000000000
      4484        79  POPC      C315           19.1702372037       -8.6926412105        3.3097988450  MEMB      27              0.0000000000
      4485        79  POPC      H15X           19.7137505209       -9.6472064682        3.1426881613  MEMB      27              0.0000000000
      4486        79  POPC      H15Y           19.9282035231       -7.8807250940        3.3614211078  MEMB      27              0.0000000000
      4487        79  POPC      C316           18.2475815816       -8.4404962705        2.1136316095  MEMB      27              0.0000000000
      4488        79  POPC      H16X           17.7157978496       -7.4712712706        2.2249816785  MEMB      27              0.0000000000
      4489        79  POPC      H16Y           17.4924339335       -9.2495937892        2.0158934204  MEMB      27              0.0000000000
      4490        79  POPC      H16Z           18.8450322354       -8.4088121230        1.1757281041  MEMB      27              0.0000000000
      4491        80  POPC      N              -6.3084956928      -31.4380729549       18.2556233058  MEMB      28              0.0000000000
      4492        80  POPC      C12            -5.1299225697      -30.8788278451       19.0438309990  MEMB      28              0.0000000000
      4493        80  POPC      H12A           -4.8658005511      -29.9133212603       18.6025616735  MEMB      28              0.0000000000
      4494        80  POPC      H12B           -4.2697797125      -31.5267671488       18.9055539842  MEMB      28              0.0000000000
      4495        80  POPC      C13            -7.5072993194      -30.5525431340       18.3725471508  MEMB      28              0.0000000000
      4496        80  POPC      H13A           -7.3245282856      -29.5869511775       17.8982117079  MEMB      28              0.0000000000
      4497        80  POPC      H13B           -8.4059679772      -30.9917368914       17.9687552406  MEMB      28              0.0000000000
      4498        80  POPC      H13C           -7.6834242434      -30.3341439129       19.4241964508  MEMB      28              0.0000000000
      4499        80  POPC      C14            -5.9186961559      -31.4968800411       16.8115489358  MEMB      28              0.0000000000
      4500        80  POPC      H14A           -6.7784862744      -31.7266310303       16.1956685634  MEMB      28              0.0000000000
      4501        80  POPC      H14B           -5.5088522511      -30.5439033809       16.4822016535  MEMB      28              0.0000000000
      4502        80  POPC      H14C           -5.1859832227      -32.2831782041       16.6321563748  MEMB      28              0.0000000000
      4503        80  POPC      C15            -6.6691013811      -32.8072103323       18.7104996664  MEMB      28              0.0000000000
      4504        80  POPC      H15A           -5.8946595795      -33.5171227823       18.4308054366  MEMB      28              0.0000000000
      4505        80  POPC      H15B           -7.5873585445      -33.1688854893       18.2584437251  MEMB      28              0.0000000000
      4506        80  POPC      H15C           -6.8416372216      -32.8394004328       19.7808428048  MEMB      28              0.0000000000
      4507        80  POPC      C11            -5.2996922516      -30.5831745690       20.5616301811  MEMB      28              0.0000000000
      4508        80  POPC      H11A           -4.3230281942      -30.1998924610       20.9454277600  MEMB      28              0.0000000000
      4509        80  POPC      H11B           -5.5090044909      -31.5473776419       21.0760070511  MEMB      28              0.0000000000
      4510        80  POPC      P              -6.2546896274      -28.1203399280       20.4564860635  MEMB      28              0.0000000000
      4511        80  POPC      O13            -5.3367721042      -27.3955029595       21.3490426135  MEMB      28              0.0000000000
      4512        80  POPC      O14            -7.6349807680      -27.6226044936       20.3177445476  MEMB      28              0.0000000000
      4513        80  POPC      O12            -6.3447437561      -29.6596358199       20.8772535437  MEMB      28              0.0000000000
      4514        80  POPC      O11            -5.5996977822      -28.2396771926       19.0106491677  MEMB      28              0.0000000000
      4515        80  POPC      C1             -5.8147602910      -27.2492726185       18.0230717188  MEMB      28              0.0000000000
      4516        80  POPC      HA             -5.4626596689      -26.2584301804       18.3998240799  MEMB      28              0.0000000000
      4517        80  POPC      HB             -6.8953584684      -27.1708254682       17.7986416236  MEMB      28              0.0000000000
      4518        80  POPC      C2             -4.9950646853      -27.5499040479       16.7303630166  MEMB      28              0.0000000000
      4519        80  POPC      HS             -4.9814771154      -26.6192471110       16.1153938716  MEMB      28              0.0000000000
      4520        80  POPC      O21            -5.5277469527      -28.6270873273       15.9266857615  MEMB      28              0.0000000000
      4521        80  POPC      C21            -6.7030628710      -28.4401384538       15.3344683775  MEMB      28              0.0000000000
      4522        80  POPC      O22            -7.5475134190      -27.6284434745       15.6265747326  MEMB      28              0.0000000000
      4523        80  POPC      C22            -6.7849316100      -29.4360967969       14.1740470496  MEMB      28              0.0000000000
      4524        80  POPC      H2R            -6.6238235994      -30.4542349033       14.5682621408  MEMB      28              0.0000000000
      4525        80  POPC      H2S            -5.9441079666      -29.1998523870       13.4889041964  MEMB      28              0.0000000000
      4526        80  POPC      C3             -3.5141654349      -27.8826968868       17.1235219453  MEMB      28              0.0000000000
      4527        80  POPC      HX             -3.5496217651      -28.6376701871       17.9343759596  MEMB      28              0.0000000000
      4528        80  POPC      HY             -3.0257038730      -26.9861788006       17.5681838093  MEMB      28              0.0000000000
      4529        80  POPC      O31            -2.7291142347      -28.4558801302       16.0550516248  MEMB      28              0.0000000000
      4530        80  POPC      C31            -2.3283003905      -27.5587895571       15.1489438904  MEMB      28              0.0000000000
      4531        80  POPC      O32            -2.6444667747      -26.3863310103       15.1451000141  MEMB      28              0.0000000000
      4532        80  POPC      C32            -1.5580068954      -28.2726964164       14.0311176728  MEMB      28              0.0000000000
      4533        80  POPC      H2X            -1.0209387080      -29.1432502417       14.4586860315  MEMB      28              0.0000000000
      4534        80  POPC      H2Y            -0.7992249290      -27.5551780294       13.6530937508  MEMB      28              0.0000000000
      4535        80  POPC      C23            -8.1053698683      -29.4321740415       13.3734852998  MEMB      28              0.0000000000
      4536        80  POPC      H3R            -8.2558384236      -28.4369469015       12.8999353852  MEMB      28              0.0000000000
      4537        80  POPC      H3S            -8.9742010641      -29.6138599791       14.0460931531  MEMB      28              0.0000000000
      4538        80  POPC      C24            -8.0599094941      -30.5297679955       12.2960934642  MEMB      28              0.0000000000
      4539        80  POPC      H4R            -8.1878296405      -31.5163708693       12.7960883599  MEMB      28              0.0000000000
      4540        80  POPC      H4S            -7.0566858779      -30.5264609970       11.8128512763  MEMB      28              0.0000000000
      4541        80  POPC      C25            -9.1203616229      -30.3833426001       11.1949835742  MEMB      28              0.0000000000
      4542        80  POPC      H5R           -10.0818540669      -30.0743035039       11.6631663494  MEMB      28              0.0000000000
      4543        80  POPC      H5S            -9.2853254274      -31.3714133256       10.7080055368  MEMB      28              0.0000000000
      4544        80  POPC      C26            -8.7170254245      -29.3749426343       10.1041513054  MEMB      28              0.0000000000
      4545        80  POPC      H6R            -8.2257417380      -28.5003034334       10.5812155627  MEMB      28              0.0000000000
      4546        80  POPC      H6S            -9.6383086681      -28.9981275514        9.6044058398  MEMB      28              0.0000000000
      4547        80  POPC      C27            -7.8018660093      -29.9786251143        9.0203839926  MEMB      28              0.0000000000
      4548        80  POPC      H7R            -8.3988389045      -30.7332218099        8.4579044755  MEMB      28              0.0000000000
      4549        80  POPC      H7S            -6.9499313098      -30.5188171630        9.4893953670  MEMB      28              0.0000000000
      4550        80  POPC      C28            -7.2693550923      -28.9377658207        8.0130956118  MEMB      28              0.0000000000
      4551        80  POPC      H8R            -8.1340499619      -28.3232409759        7.6726089560  MEMB      28              0.0000000000
      4552        80  POPC      H8S            -6.8916163706      -29.4867529410        7.1201536955  MEMB      28              0.0000000000
      4553        80  POPC      C29            -6.1924548826      -28.0426554160        8.5811882815  MEMB      28              0.0000000000
      4554        80  POPC      H91            -6.2281517324      -27.9023894734        9.6720926767  MEMB      28              0.0000000000
      4555        80  POPC      C210           -5.2203881953      -27.4257215994        7.8827329507  MEMB      28              0.0000000000
      4556        80  POPC      H101           -4.4791783787      -26.8139788102        8.4204544839  MEMB      28              0.0000000000
      4557        80  POPC      C211           -5.0194155317      -27.5096270139        6.3916972887  MEMB      28              0.0000000000
      4558        80  POPC      H11R           -4.9546796772      -28.5762895816        6.0878528019  MEMB      28              0.0000000000
      4559        80  POPC      H11S           -4.0474327143      -27.0453735466        6.1104881903  MEMB      28              0.0000000000
      4560        80  POPC      C212           -6.1353954718      -26.8171138345        5.5828400363  MEMB      28              0.0000000000
      4561        80  POPC      H12R           -6.2221423988      -25.7557469855        5.9039715102  MEMB      28              0.0000000000
      4562        80  POPC      H12S           -7.1151283414      -27.2952506469        5.8006578976  MEMB      28              0.0000000000
      4563        80  POPC      C213           -5.8924765967      -26.8599063753        4.0654700380  MEMB      28              0.0000000000
      4564        80  POPC      H13R           -4.9343293843      -26.3346916991        3.8489639126  MEMB      28              0.0000000000
      4565        80  POPC      H13S           -6.7054596224      -26.3045813965        3.5484441629  MEMB      28              0.0000000000
      4566        80  POPC      C214           -5.7913990157      -28.2842897678        3.4932493964  MEMB      28              0.0000000000
      4567        80  POPC      H14R           -4.9264514449      -28.7846461510        3.9765585534  MEMB      28              0.0000000000
      4568        80  POPC      H14S           -5.5581107134      -28.2218749982        2.4058263415  MEMB      28              0.0000000000
      4569        80  POPC      C215           -7.0497072994      -29.1559253992        3.6815960690  MEMB      28              0.0000000000
      4570        80  POPC      H15R           -7.3187828926      -29.2407755601        4.7546745214  MEMB      28              0.0000000000
      4571        80  POPC      H15S           -6.8381866200      -30.1819756715        3.3171256706  MEMB      28              0.0000000000
      4572        80  POPC      C216           -8.2314166717      -28.6370396010        2.8636911836  MEMB      28              0.0000000000
      4573        80  POPC      H16R           -7.8077262620      -28.3523216283        1.8717965945  MEMB      28              0.0000000000
      4574        80  POPC      H16S           -8.6450434608      -27.7269885323        3.3482306232  MEMB      28              0.0000000000
      4575        80  POPC      C217           -9.3521630535      -29.6484706981        2.5898173118  MEMB      28              0.0000000000
      4576        80  POPC      H17R           -8.9386350666      -30.6802566239        2.5704608433  MEMB      28              0.0000000000
      4577        80  POPC      H17S           -9.7455974201      -29.4341376269        1.5679045712  MEMB      28              0.0000000000
      4578        80  POPC      C218          -10.5334522473      -29.5558455498        3.5556138657  MEMB      28              0.0000000000
      4579        80  POPC      H18R          -10.9358718448      -28.5189724802        3.5587392979  MEMB      28              0.0000000000
      4580        80  POPC      H18S          -10.2215546209      -29.8181611289        4.5884925362  MEMB      28              0.0000000000
      4581        80  POPC      H18T          -11.3499850999      -30.2405849661        3.2392086307  MEMB      28              0.0000000000
      4582        80  POPC      C33            -2.5048544890      -28.7002934514       12.8772658304  MEMB      28              0.0000000000
      4583        80  POPC      H3X            -2.9823469489      -27.7869617955       12.4543728246  MEMB      28              0.0000000000
      4584        80  POPC      H3Y            -3.3117585624      -29.3472490892       13.2903971328  MEMB      28              0.0000000000
      4585        80  POPC      C34            -1.8117764558      -29.4589287328       11.7297908760  MEMB      28              0.0000000000
      4586        80  POPC      H4X            -1.4765123277      -30.4493652580       12.1101083993  MEMB      28              0.0000000000
      4587        80  POPC      H4Y            -0.9055007422      -28.8940842607       11.4155645036  MEMB      28              0.0000000000
      4588        80  POPC      C35            -2.7441873084      -29.6597092768       10.5162214010  MEMB      28              0.0000000000
      4589        80  POPC      H5X            -3.0732138689      -28.6578068709       10.1599293895  MEMB      28              0.0000000000
      4590        80  POPC      H5Y            -3.6499624292      -30.2189822818       10.8435040033  MEMB      28              0.0000000000
      4591        80  POPC      C36            -2.1045144166      -30.4128528488        9.3351376225  MEMB      28              0.0000000000
      4592        80  POPC      H6X            -1.7952349911      -31.4276091618        9.6740592229  MEMB      28              0.0000000000
      4593        80  POPC      H6Y            -1.1872634720      -29.8668112720        9.0198603917  MEMB      28              0.0000000000
      4594        80  POPC      C37            -3.0555524524      -30.5470121019        8.1253375219  MEMB      28              0.0000000000
      4595        80  POPC      H7X            -3.4105575674      -29.5328912373        7.8406161566  MEMB      28              0.0000000000
      4596        80  POPC      H7Y            -3.9447269130      -31.1475649685        8.4180569779  MEMB      28              0.0000000000
      4597        80  POPC      C38            -2.3879992819      -31.1857314714        6.8952384775  MEMB      28              0.0000000000
      4598        80  POPC      H8X            -2.0066310838      -32.1932762707        7.1725321873  MEMB      28              0.0000000000
      4599        80  POPC      H8Y            -1.5111138964      -30.5542984677        6.6429405371  MEMB      28              0.0000000000
      4600        80  POPC      C39            -3.2967874932      -31.3207599627        5.6490868265  MEMB      28              0.0000000000
      4601        80  POPC      H9X            -3.5860822772      -30.3060618856        5.3025667180  MEMB      28              0.0000000000
      4602        80  POPC      H9Y            -4.2295433933      -31.8352627834        5.9462220060  MEMB      28              0.0000000000
      4603        80  POPC      C310           -2.5933598570      -32.0777551374        4.4985523853  MEMB      28              0.0000000000
      4604        80  POPC      H10X           -2.2288152877      -33.0552538630        4.8750877291  MEMB      28              0.0000000000
      4605        80  POPC      H10Y           -1.7007873951      -31.4840826555        4.2282525611  MEMB      28              0.0000000000
      4606        80  POPC      C311           -3.3436487800      -32.2950427347        3.1660920719  MEMB      28              0.0000000000
      4607        80  POPC      H11X           -4.0519738010      -33.1431005026        3.2301776332  MEMB      28              0.0000000000
      4608        80  POPC      H11Y           -2.5910103239      -32.5692788901        2.3915939415  MEMB      28              0.0000000000
      4609        80  POPC      C312           -4.1288776313      -31.0768183457        2.6918948920  MEMB      28              0.0000000000
      4610        80  POPC      H12X           -3.5843158077      -30.1514128945        2.9762542459  MEMB      28              0.0000000000
      4611        80  POPC      H12Y           -5.0837515363      -31.0936402910        3.2543441962  MEMB      28              0.0000000000
      4612        80  POPC      C313           -4.4045141395      -31.0350582737        1.1799632029  MEMB      28              0.0000000000
      4613        80  POPC      H13X           -5.3878251199      -30.5348679048        1.0217377818  MEMB      28              0.0000000000
      4614        80  POPC      H13Y           -4.4730898775      -32.0615200798        0.7604345916  MEMB      28              0.0000000000
      4615        80  POPC      C314           -3.3422036299      -30.2056198067        0.4425154194  MEMB      28              0.0000000000
      4616        80  POPC      H14X           -2.3633869132      -30.7295649016        0.4784399166  MEMB      28              0.0000000000
      4617        80  POPC      H14Y           -3.2304565932      -29.2455505326        0.9986351380  MEMB      28              0.0000000000
      4618        80  POPC      C315           -3.6972918878      -29.8424718515       -1.0060888521  MEMB      28              0.0000000000
      4619        80  POPC      H15X           -3.0075162625      -29.0334372171       -1.3422815231  MEMB      28              0.0000000000
      4620        80  POPC      H15Y           -4.7240515090      -29.4181460083       -1.0161847928  MEMB      28              0.0000000000
      4621        80  POPC      C316           -3.6003001018      -31.0008136785       -2.0009048771  MEMB      28              0.0000000000
      4622        80  POPC      H16X           -2.5441045869      -31.3332574441       -2.1034459321  MEMB      28              0.0000000000
      4623        80  POPC      H16Y           -3.9664798934      -30.6851175887       -3.0020750835  MEMB      28              0.0000000000
      4624        80  POPC      H16Z           -4.2070056559      -31.8668796085       -1.6614564519  MEMB      28              0.0000000000
      4625        81  POPC      N             -18.9780861231        6.3990366676       19.9610992919  MEMB      29              0.0000000000
      4626        81  POPC      C12           -20.4346244957        6.0281529712       20.1944736068  MEMB      29              0.0000000000
      4627        81  POPC      H12A          -20.8453232648        6.6843481379       20.9545552826  MEMB      29              0.0000000000
      4628        81  POPC      H12B          -20.4552079616        5.0186209833       20.5838782116  MEMB      29              0.0000000000
      4629        81  POPC      C13           -18.8830478131        7.8556426026       19.6737087161  MEMB      29              0.0000000000
      4630        81  POPC      H13A          -17.8768212687        8.1447558948       19.4599880898  MEMB      29              0.0000000000
      4631        81  POPC      H13B          -19.5451897605        8.0929138671       18.8392698566  MEMB      29              0.0000000000
      4632        81  POPC      H13C          -19.2415879892        8.4212311524       20.5267665125  MEMB      29              0.0000000000
      4633        81  POPC      C14           -18.1468145880        6.0936322145       21.1686258782  MEMB      29              0.0000000000
      4634        81  POPC      H14A          -18.1938447895        5.0289053147       21.3955682516  MEMB      29              0.0000000000
      4635        81  POPC      H14B          -17.1104980567        6.3339531929       20.9900296729  MEMB      29              0.0000000000
      4636        81  POPC      H14C          -18.4797510485        6.6329137518       22.0500841464  MEMB      29              0.0000000000
      4637        81  POPC      C15           -18.4916668940        5.6083345822       18.7823943746  MEMB      29              0.0000000000
      4638        81  POPC      H15A          -18.4378131901        4.5405853489       18.9919943104  MEMB      29              0.0000000000
      4639        81  POPC      H15B          -17.4868042768        5.8824650184       18.4973252919  MEMB      29              0.0000000000
      4640        81  POPC      H15C          -19.1584048963        5.7804852557       17.9425806444  MEMB      29              0.0000000000
      4641        81  POPC      C11           -21.3943596024        6.0497440579       18.9802786962  MEMB      29              0.0000000000
      4642        81  POPC      H11A          -22.4437634848        5.8509176988       19.3158017687  MEMB      29              0.0000000000
      4643        81  POPC      H11B          -21.1506906081        5.2053082090       18.2968535273  MEMB      29              0.0000000000
      4644        81  POPC      P             -22.2010817391        8.4891538825       18.6477849962  MEMB      29              0.0000000000
      4645        81  POPC      O13           -21.8645333538        8.9060244363       20.0293060325  MEMB      29              0.0000000000
      4646        81  POPC      O14           -23.6065355598        8.1717234586       18.3164322436  MEMB      29              0.0000000000
      4647        81  POPC      O12           -21.2749060511        7.2711876657       18.2615732506  MEMB      29              0.0000000000
      4648        81  POPC      O11           -21.7244113597        9.6545264271       17.7051410486  MEMB      29              0.0000000000
      4649        81  POPC      C1            -20.6095870063        9.6301440219       16.8218665811  MEMB      29              0.0000000000
      4650        81  POPC      HA            -19.7243232336        9.1292454095       17.2668679540  MEMB      29              0.0000000000
      4651        81  POPC      HB            -20.3216188857       10.6820956342       16.6032514498  MEMB      29              0.0000000000
      4652        81  POPC      C2            -20.9581379199        8.9649582082       15.4720243096  MEMB      29              0.0000000000
      4653        81  POPC      HS            -22.0053978233        9.2612122006       15.2196701791  MEMB      29              0.0000000000
      4654        81  POPC      O21           -20.7755806520        7.5511080280       15.6150967835  MEMB      29              0.0000000000
      4655        81  POPC      C21           -21.6474565032        6.8219810006       14.9455557426  MEMB      29              0.0000000000
      4656        81  POPC      O22           -22.6705758496        7.2334983959       14.4247264303  MEMB      29              0.0000000000
      4657        81  POPC      C22           -21.0872876830        5.4111767102       14.8216188287  MEMB      29              0.0000000000
      4658        81  POPC      H2R           -21.0111109987        5.0074765037       15.8560066451  MEMB      29              0.0000000000
      4659        81  POPC      H2S           -20.0692922722        5.4545462440       14.3879599122  MEMB      29              0.0000000000
      4660        81  POPC      C3            -20.0271371031        9.4417513188       14.3300437331  MEMB      29              0.0000000000
      4661        81  POPC      HX            -18.9850776464        9.1749696789       14.6285255493  MEMB      29              0.0000000000
      4662        81  POPC      HY            -20.1048333150       10.5478516010       14.2322700585  MEMB      29              0.0000000000
      4663        81  POPC      O31           -20.3858414648        8.7924799034       13.0953691724  MEMB      29              0.0000000000
      4664        81  POPC      C31           -19.5016771456        9.0114889269       12.1223215719  MEMB      29              0.0000000000
      4665        81  POPC      O32           -18.5504959096        9.7648296528       12.1994381040  MEMB      29              0.0000000000
      4666        81  POPC      C32           -19.9087941440        8.1829082919       10.9119648615  MEMB      29              0.0000000000
      4667        81  POPC      H2X           -20.9749546979        8.4062902956       10.6999464590  MEMB      29              0.0000000000
      4668        81  POPC      H2Y           -19.8115500490        7.1177998729       11.2076591077  MEMB      29              0.0000000000
      4669        81  POPC      C23           -21.9913695628        4.4704171301       13.9995352826  MEMB      29              0.0000000000
      4670        81  POPC      H3R           -23.0704895032        4.7191413686       14.1097677195  MEMB      29              0.0000000000
      4671        81  POPC      H3S           -21.8563605146        3.4657697123       14.4707128314  MEMB      29              0.0000000000
      4672        81  POPC      C24           -21.6233780254        4.2781198317       12.5200221490  MEMB      29              0.0000000000
      4673        81  POPC      H4R           -22.1645707677        3.3603999966       12.1893521214  MEMB      29              0.0000000000
      4674        81  POPC      H4S           -20.5349234065        4.0838804355       12.4294232923  MEMB      29              0.0000000000
      4675        81  POPC      C25           -22.0409968237        5.4009244202       11.5594734221  MEMB      29              0.0000000000
      4676        81  POPC      H5R           -21.6352636458        6.3627093157       11.9304164981  MEMB      29              0.0000000000
      4677        81  POPC      H5S           -23.1461119898        5.4943209335       11.5733747644  MEMB      29              0.0000000000
      4678        81  POPC      C26           -21.5623230271        5.1069934115       10.1230446743  MEMB      29              0.0000000000
      4679        81  POPC      H6R           -21.8226300433        4.0478781283        9.8984440165  MEMB      29              0.0000000000
      4680        81  POPC      H6S           -20.4534077603        5.1943597116       10.0868745746  MEMB      29              0.0000000000
      4681        81  POPC      C27           -22.1695668143        6.0015209094        9.0255891685  MEMB      29              0.0000000000
      4682        81  POPC      H7R           -22.0486198343        7.0678285049        9.3196521076  MEMB      29              0.0000000000
      4683        81  POPC      H7S           -23.2615920800        5.8050353860        8.9496995873  MEMB      29              0.0000000000
      4684        81  POPC      C28           -21.5059519382        5.8248426384        7.6367634282  MEMB      29              0.0000000000
      4685        81  POPC      H8R           -20.4349443227        6.1080062098        7.7321819768  MEMB      29              0.0000000000
      4686        81  POPC      H8S           -21.9711495934        6.5619249025        6.9427917124  MEMB      29              0.0000000000
      4687        81  POPC      C29           -21.5850591458        4.4279046222        7.0679172906  MEMB      29              0.0000000000
      4688        81  POPC      H91           -21.6473384413        3.6249752464        7.8166340769  MEMB      29              0.0000000000
      4689        81  POPC      C210          -21.5758440425        4.0889889490        5.7635237606  MEMB      29              0.0000000000
      4690        81  POPC      H101          -21.6638995700        3.0234372136        5.4959085614  MEMB      29              0.0000000000
      4691        81  POPC      C211          -21.4853271598        5.0353166031        4.5865745574  MEMB      29              0.0000000000
      4692        81  POPC      H11R          -20.7013715090        4.7004829321        3.8703704780  MEMB      29              0.0000000000
      4693        81  POPC      H11S          -21.2061112826        6.0637587393        4.9039976759  MEMB      29              0.0000000000
      4694        81  POPC      C212          -22.8426027937        5.0947393376        3.8616001287  MEMB      29              0.0000000000
      4695        81  POPC      H12R          -23.6378715636        5.2629899084        4.6218987655  MEMB      29              0.0000000000
      4696        81  POPC      H12S          -23.0409076568        4.1117414997        3.3761957831  MEMB      29              0.0000000000
      4697        81  POPC      C213          -22.9676641892        6.2049477332        2.7979917114  MEMB      29              0.0000000000
      4698        81  POPC      H13R          -23.9304160104        6.0494373655        2.2593002833  MEMB      29              0.0000000000
      4699        81  POPC      H13S          -22.1410495473        6.1115109322        2.0622485803  MEMB      29              0.0000000000
      4700        81  POPC      C214          -22.9699009879        7.6286552737        3.3801511993  MEMB      29              0.0000000000
      4701        81  POPC      H14R          -21.9202054382        7.9732879784        3.4566685823  MEMB      29              0.0000000000
      4702        81  POPC      H14S          -23.3889089726        7.5734902040        4.4123569551  MEMB      29              0.0000000000
      4703        81  POPC      C215          -23.8155232447        8.6612137199        2.6033287719  MEMB      29              0.0000000000
      4704        81  POPC      H15R          -23.8675417522        9.5995025375        3.1980841264  MEMB      29              0.0000000000
      4705        81  POPC      H15S          -24.8522925406        8.2636286377        2.5352801985  MEMB      29              0.0000000000
      4706        81  POPC      C216          -23.3441040559        9.0070126593        1.1782585160  MEMB      29              0.0000000000
      4707        81  POPC      H16R          -24.1284596333        9.6173155437        0.6776496226  MEMB      29              0.0000000000
      4708        81  POPC      H16S          -23.2234739055        8.0618355537        0.6070414413  MEMB      29              0.0000000000
      4709        81  POPC      C217          -22.0254013439        9.7815183731        1.0934625130  MEMB      29              0.0000000000
      4710        81  POPC      H17R          -21.6272745760        9.7097115996        0.0584631599  MEMB      29              0.0000000000
      4711        81  POPC      H17S          -21.3073197534        9.2550772080        1.7379932231  MEMB      29              0.0000000000
      4712        81  POPC      C218          -22.1057221206       11.2624999271        1.4744911583  MEMB      29              0.0000000000
      4713        81  POPC      H18R          -22.7219689450       11.8149341500        0.7319978881  MEMB      29              0.0000000000
      4714        81  POPC      H18S          -21.0881189466       11.7098577724        1.4935073162  MEMB      29              0.0000000000
      4715        81  POPC      H18T          -22.5596417566       11.3888669574        2.4800157481  MEMB      29              0.0000000000
      4716        81  POPC      C33           -19.0523312123        8.3930897975        9.6479659677  MEMB      29              0.0000000000
      4717        81  POPC      H3X           -19.4644436642        7.7224648467        8.8588647877  MEMB      29              0.0000000000
      4718        81  POPC      H3Y           -18.0022195336        8.0718080800        9.8302216875  MEMB      29              0.0000000000
      4719        81  POPC      C34           -19.0594970692        9.8287172548        9.1143417157  MEMB      29              0.0000000000
      4720        81  POPC      H4X           -18.2600505908       10.3982841154        9.6430238675  MEMB      29              0.0000000000
      4721        81  POPC      H4Y           -20.0303959210       10.3272822450        9.3305973356  MEMB      29              0.0000000000
      4722        81  POPC      C35           -18.8049630787        9.8469451277        7.6060678849  MEMB      29              0.0000000000
      4723        81  POPC      H5X           -18.1150872489        9.0069054021        7.3606174989  MEMB      29              0.0000000000
      4724        81  POPC      H5Y           -18.2887007071       10.7871862136        7.3163012351  MEMB      29              0.0000000000
      4725        81  POPC      C36           -20.0998039572        9.7125008872        6.7913533332  MEMB      29              0.0000000000
      4726        81  POPC      H6X           -20.4169518062       10.7110636580        6.4187206527  MEMB      29              0.0000000000
      4727        81  POPC      H6Y           -20.9169221392        9.3476966206        7.4572887195  MEMB      29              0.0000000000
      4728        81  POPC      C37           -19.9842122529        8.7236813764        5.6234824591  MEMB      29              0.0000000000
      4729        81  POPC      H7X           -20.9390050651        8.7604658509        5.0592232068  MEMB      29              0.0000000000
      4730        81  POPC      H7Y           -19.8937820520        7.6990507648        6.0493946400  MEMB      29              0.0000000000
      4731        81  POPC      C38           -18.7999713070        8.9588674104        4.6639773989  MEMB      29              0.0000000000
      4732        81  POPC      H8X           -18.3341078570        7.9695128589        4.4575179152  MEMB      29              0.0000000000
      4733        81  POPC      H8Y           -18.0324231831        9.6117779017        5.1247937692  MEMB      29              0.0000000000
      4734        81  POPC      C39           -19.2542679641        9.5441467630        3.3219721552  MEMB      29              0.0000000000
      4735        81  POPC      H9X           -20.0060817983       10.3381541293        3.5463158848  MEMB      29              0.0000000000
      4736        81  POPC      H9Y           -19.7880668999        8.7361610814        2.7926596267  MEMB      29              0.0000000000
      4737        81  POPC      C310          -18.1673802980       10.1937472065        2.4365893500  MEMB      29              0.0000000000
      4738        81  POPC      H10X          -17.4259222047       10.6972710004        3.0943745724  MEMB      29              0.0000000000
      4739        81  POPC      H10Y          -18.6729211533       10.9934293178        1.8454350223  MEMB      29              0.0000000000
      4740        81  POPC      C311          -17.4002127977        9.3122434414        1.4247725717  MEMB      29              0.0000000000
      4741        81  POPC      H11X          -16.4543037938        8.9745787256        1.8932125587  MEMB      29              0.0000000000
      4742        81  POPC      H11Y          -17.0902082784        9.9539679827        0.5700404048  MEMB      29              0.0000000000
      4743        81  POPC      C312          -18.1413064211        8.0893381576        0.8670317636  MEMB      29              0.0000000000
      4744        81  POPC      H12X          -18.9297994764        8.4239084188        0.1585473139  MEMB      29              0.0000000000
      4745        81  POPC      H12Y          -18.6413963880        7.5353948109        1.6884589591  MEMB      29              0.0000000000
      4746        81  POPC      C313          -17.1994062398        7.0814666673        0.1905861030  MEMB      29              0.0000000000
      4747        81  POPC      H13X          -16.3499866969        6.8488700961        0.8713139052  MEMB      29              0.0000000000
      4748        81  POPC      H13Y          -16.7722563915        7.5495870799       -0.7215607059  MEMB      29              0.0000000000
      4749        81  POPC      C314          -17.9199535120        5.7722017316       -0.1631756263  MEMB      29              0.0000000000
      4750        81  POPC      H14X          -17.3487618722        5.2278301269       -0.9476862998  MEMB      29              0.0000000000
      4751        81  POPC      H14Y          -18.9165110563        6.0245174576       -0.5885027749  MEMB      29              0.0000000000
      4752        81  POPC      C315          -18.1133765996        4.8416921123        1.0434337547  MEMB      29              0.0000000000
      4753        81  POPC      H15X          -18.1196380202        5.4490128632        1.9769517271  MEMB      29              0.0000000000
      4754        81  POPC      H15Y          -17.2411828946        4.1521451354        1.1078598509  MEMB      29              0.0000000000
      4755        81  POPC      C316          -19.4174455203        4.0441099259        0.9883430459  MEMB      29              0.0000000000
      4756        81  POPC      H16X          -20.2865527947        4.7371586337        0.9968260705  MEMB      29              0.0000000000
      4757        81  POPC      H16Y          -19.5017980321        3.3675147899        1.8655912441  MEMB      29              0.0000000000
      4758        81  POPC      H16Z          -19.4664822091        3.4372149660        0.0608105206  MEMB      29              0.0000000000
      4759        82  POPC      N              25.6353801101       14.1668860084       20.9154630363  MEMB      30              0.0000000000
      4760        82  POPC      C12            26.2763248594       12.9030882878       20.3646148081  MEMB      30              0.0000000000
      4761        82  POPC      H12A           25.9327019467       12.0616575471       20.9519073650  MEMB      30              0.0000000000
      4762        82  POPC      H12B           27.3510940097       12.9423242680       20.5004825662  MEMB      30              0.0000000000
      4763        82  POPC      C13            25.8857714457       14.2487900507       22.3858144022  MEMB      30              0.0000000000
      4764        82  POPC      H13A           26.9261583578       14.4620456353       22.5838792157  MEMB      30              0.0000000000
      4765        82  POPC      H13B           25.3099795133       15.0384972802       22.8511751056  MEMB      30              0.0000000000
      4766        82  POPC      H13C           25.6662882856       13.3183715968       22.8954727609  MEMB      30              0.0000000000
      4767        82  POPC      C14            26.2116463044       15.3683966424       20.2273393502  MEMB      30              0.0000000000
      4768        82  POPC      H14A           25.7018792723       16.2852666026       20.5340293696  MEMB      30              0.0000000000
      4769        82  POPC      H14B           27.2681649288       15.4857076882       20.4430135126  MEMB      30              0.0000000000
      4770        82  POPC      H14C           26.0664866437       15.2507470453       19.1567403001  MEMB      30              0.0000000000
      4771        82  POPC      C15            24.1613160265       14.1608377549       20.6446757082  MEMB      30              0.0000000000
      4772        82  POPC      H15A           24.0093664387       14.0050908694       19.5709158558  MEMB      30              0.0000000000
      4773        82  POPC      H15B           23.6785791387       15.0922601139       20.9158301776  MEMB      30              0.0000000000
      4774        82  POPC      H15C           23.6720813562       13.3135098859       21.1102145663  MEMB      30              0.0000000000
      4775        82  POPC      C11            25.9937714461       12.5687766446       18.8868421739  MEMB      30              0.0000000000
      4776        82  POPC      H11A           26.6469479752       11.7165790772       18.5795877023  MEMB      30              0.0000000000
      4777        82  POPC      H11B           26.2896124729       13.4569051422       18.2876423253  MEMB      30              0.0000000000
      4778        82  POPC      P              24.1339993626       11.4121066271       17.4152863730  MEMB      30              0.0000000000
      4779        82  POPC      O13            22.8709309338       11.9853792697       16.9124999933  MEMB      30              0.0000000000
      4780        82  POPC      O14            24.1466813363        9.9970728012       17.8260585498  MEMB      30              0.0000000000
      4781        82  POPC      O12            24.6137205644       12.2700706047       18.6764997803  MEMB      30              0.0000000000
      4782        82  POPC      O11            25.3189830363       11.6314945190       16.4050420755  MEMB      30              0.0000000000
      4783        82  POPC      C1             25.6245254110       12.9028058492       15.8574820516  MEMB      30              0.0000000000
      4784        82  POPC      HA             26.6182658107       13.2289202225       16.2336543805  MEMB      30              0.0000000000
      4785        82  POPC      HB             24.8768667834       13.6908218134       16.1191491122  MEMB      30              0.0000000000
      4786        82  POPC      C2             25.7477347027       12.7651475162       14.3364610753  MEMB      30              0.0000000000
      4787        82  POPC      HS             26.1392323099       13.7242143068       13.9254979421  MEMB      30              0.0000000000
      4788        82  POPC      O21            24.4820249705       12.4220681167       13.7472797371  MEMB      30              0.0000000000
      4789        82  POPC      C21            23.7126032857       13.4877714546       13.6515152702  MEMB      30              0.0000000000
      4790        82  POPC      O22            24.0307263806       14.6155423208       13.9905573889  MEMB      30              0.0000000000
      4791        82  POPC      C22            22.4508881586       13.1303949052       12.8942217698  MEMB      30              0.0000000000
      4792        82  POPC      H2R            21.5943425655       13.5100477759       13.4878838148  MEMB      30              0.0000000000
      4793        82  POPC      H2S            22.3632401568       12.0292182985       12.7783273595  MEMB      30              0.0000000000
      4794        82  POPC      C3             26.7734916579       11.6824417189       13.9669182977  MEMB      30              0.0000000000
      4795        82  POPC      HX             26.3696802165       10.7128688563       14.3473577793  MEMB      30              0.0000000000
      4796        82  POPC      HY             27.7314227313       11.8825164207       14.4931798801  MEMB      30              0.0000000000
      4797        82  POPC      O31            26.9762944410       11.7500706372       12.5409093895  MEMB      30              0.0000000000
      4798        82  POPC      C31            26.7495771971       10.6212368905       11.8929238258  MEMB      30              0.0000000000
      4799        82  POPC      O32            26.6739198639        9.5220396300       12.4046544525  MEMB      30              0.0000000000
      4800        82  POPC      C32            26.6377738360       10.8991864314       10.3809837088  MEMB      30              0.0000000000
      4801        82  POPC      H2X            27.4993695526       11.5167648896       10.0692105548  MEMB      30              0.0000000000
      4802        82  POPC      H2Y            25.7009804292       11.4727754761       10.2311038918  MEMB      30              0.0000000000
      4803        82  POPC      C23            22.4584649853       13.8337568006       11.5267759259  MEMB      30              0.0000000000
      4804        82  POPC      H3R            22.6613173181       14.9190652051       11.6795141949  MEMB      30              0.0000000000
      4805        82  POPC      H3S            21.4498126425       13.7252280274       11.0646275663  MEMB      30              0.0000000000
      4806        82  POPC      C24            23.5092711539       13.2671638232       10.5701423545  MEMB      30              0.0000000000
      4807        82  POPC      H4R            23.3728280735       12.1632534247       10.4907183899  MEMB      30              0.0000000000
      4808        82  POPC      H4S            24.5262563346       13.4476884962       10.9855314589  MEMB      30              0.0000000000
      4809        82  POPC      C25            23.4239056449       13.8759026826        9.1645885803  MEMB      30              0.0000000000
      4810        82  POPC      H5R            22.4711487462       13.5228177816        8.7082783826  MEMB      30              0.0000000000
      4811        82  POPC      H5S            24.2611774137       13.4688384218        8.5640893110  MEMB      30              0.0000000000
      4812        82  POPC      C26            23.4146166674       15.4140333814        9.0894279198  MEMB      30              0.0000000000
      4813        82  POPC      H6R            22.5970235803       15.7993105526        9.7317968634  MEMB      30              0.0000000000
      4814        82  POPC      H6S            23.1585905158       15.7180156710        8.0516753273  MEMB      30              0.0000000000
      4815        82  POPC      C27            24.7264730351       16.1028795753        9.5009655611  MEMB      30              0.0000000000
      4816        82  POPC      H7R            25.0293764710       15.7216829246       10.5022413082  MEMB      30              0.0000000000
      4817        82  POPC      H7S            24.5322882814       17.1943418943        9.6180376508  MEMB      30              0.0000000000
      4818        82  POPC      C28            25.8979167618       15.9044695624        8.5147275212  MEMB      30              0.0000000000
      4819        82  POPC      H8R            26.0948930426       14.8175917786        8.4033306503  MEMB      30              0.0000000000
      4820        82  POPC      H8S            26.8159227483       16.3336908895        8.9731869878  MEMB      30              0.0000000000
      4821        82  POPC      C29            25.6615527038       16.5697321381        7.1831152511  MEMB      30              0.0000000000
      4822        82  POPC      H91            25.7076997329       17.6705009775        7.2049613167  MEMB      30              0.0000000000
      4823        82  POPC      C210           25.3708172704       15.9546658416        6.0222730857  MEMB      30              0.0000000000
      4824        82  POPC      H101           25.1926118042       16.5745608261        5.1290758982  MEMB      30              0.0000000000
      4825        82  POPC      C211           25.2134240052       14.4702029205        5.8039921354  MEMB      30              0.0000000000
      4826        82  POPC      H11R           24.2943300118       14.3257936768        5.1977252716  MEMB      30              0.0000000000
      4827        82  POPC      H11S           25.0341179278       13.9273449578        6.7535239977  MEMB      30              0.0000000000
      4828        82  POPC      C212           26.3685776544       13.7426097219        5.0832246379  MEMB      30              0.0000000000
      4829        82  POPC      H12R           26.6973399105       14.3289429645        4.1978033368  MEMB      30              0.0000000000
      4830        82  POPC      H12S           25.9731065446       12.7739632346        4.7127457273  MEMB      30              0.0000000000
      4831        82  POPC      C213           27.5643609975       13.3781344498        5.9755032051  MEMB      30              0.0000000000
      4832        82  POPC      H13R           27.2350468052       12.7441879848        6.8246162863  MEMB      30              0.0000000000
      4833        82  POPC      H13S           27.9739984174       14.3247185817        6.4021560834  MEMB      30              0.0000000000
      4834        82  POPC      C214           28.6985879815       12.6815294596        5.2027050188  MEMB      30              0.0000000000
      4835        82  POPC      H14R           29.6061102428       12.6890485272        5.8462201188  MEMB      30              0.0000000000
      4836        82  POPC      H14S           28.9098568766       13.3065998176        4.3053007965  MEMB      30              0.0000000000
      4837        82  POPC      C215           28.5149105761       11.2317121255        4.7060158265  MEMB      30              0.0000000000
      4838        82  POPC      H15R           27.5603155243       11.1322743065        4.1493278235  MEMB      30              0.0000000000
      4839        82  POPC      H15S           28.4701712834       10.5260733573        5.5628667543  MEMB      30              0.0000000000
      4840        82  POPC      C216           29.7104630156       10.9168631232        3.7763473193  MEMB      30              0.0000000000
      4841        82  POPC      H16R           30.6522995530       11.0212496641        4.3500719080  MEMB      30              0.0000000000
      4842        82  POPC      H16S           29.7240277418       11.7172942863        3.0017327943  MEMB      30              0.0000000000
      4843        82  POPC      C217           29.7237085377        9.5891807344        3.0085634234  MEMB      30              0.0000000000
      4844        82  POPC      H17R           29.9933649716        8.7203643287        3.6499514013  MEMB      30              0.0000000000
      4845        82  POPC      H17S           30.5248705096        9.6715583893        2.2340368803  MEMB      30              0.0000000000
      4846        82  POPC      C218           28.4136427172        9.3241980953        2.2962348000  MEMB      30              0.0000000000
      4847        82  POPC      H18R           28.5695671505        8.7006655870        1.3911398230  MEMB      30              0.0000000000
      4848        82  POPC      H18S           27.9272492526       10.2627377082        2.0191021837  MEMB      30              0.0000000000
      4849        82  POPC      H18T           27.6715948968        8.8556875814        2.9585996881  MEMB      30              0.0000000000
      4850        82  POPC      C33            26.5814782986        9.6040712835        9.5345398683  MEMB      30              0.0000000000
      4851        82  POPC      H3X            25.6634407059        9.0588069980        9.8317021666  MEMB      30              0.0000000000
      4852        82  POPC      H3Y            27.4552822629        8.9553184217        9.7791924926  MEMB      30              0.0000000000
      4853        82  POPC      C34            26.5546224214        9.8030501547        8.0063206936  MEMB      30              0.0000000000
      4854        82  POPC      H4X            26.5025401710        8.7990322157        7.5229803026  MEMB      30              0.0000000000
      4855        82  POPC      H4Y            27.5141634194       10.2678928955        7.6889337520  MEMB      30              0.0000000000
      4856        82  POPC      C35            25.3868559954       10.6484753324        7.4661246775  MEMB      30              0.0000000000
      4857        82  POPC      H5X            25.5233815783       10.7486868932        6.3649840597  MEMB      30              0.0000000000
      4858        82  POPC      H5Y            25.4472034843       11.6732194622        7.8922078706  MEMB      30              0.0000000000
      4859        82  POPC      C36            23.9949176676       10.0552760100        7.7627784571  MEMB      30              0.0000000000
      4860        82  POPC      H6X            23.8480540943       10.0446017359        8.8670162907  MEMB      30              0.0000000000
      4861        82  POPC      H6Y            23.9509976640        9.0064907051        7.3967250755  MEMB      30              0.0000000000
      4862        82  POPC      C37            22.8298478569       10.8499485938        7.1505364234  MEMB      30              0.0000000000
      4863        82  POPC      H7X            22.9745247474       11.9135296584        7.4320691666  MEMB      30              0.0000000000
      4864        82  POPC      H7Y            21.8616885909       10.5161073302        7.5864647184  MEMB      30              0.0000000000
      4865        82  POPC      C38            22.7506679062       10.7762818731        5.6213799754  MEMB      30              0.0000000000
      4866        82  POPC      H8X            22.1136166816        9.9243771393        5.2999725396  MEMB      30              0.0000000000
      4867        82  POPC      H8Y            23.7697222435       10.5687342614        5.2383658347  MEMB      30              0.0000000000
      4868        82  POPC      C39            22.2354928526       12.0913066546        5.0144795900  MEMB      30              0.0000000000
      4869        82  POPC      H9X            22.7374271635       12.9493748222        5.5088692407  MEMB      30              0.0000000000
      4870        82  POPC      H9Y            21.1492421179       12.1746201736        5.2390257627  MEMB      30              0.0000000000
      4871        82  POPC      C310           22.4623201778       12.1956467189        3.5005555544  MEMB      30              0.0000000000
      4872        82  POPC      H10X           21.9568102832       13.1018533000        3.0965876537  MEMB      30              0.0000000000
      4873        82  POPC      H10Y           21.9759633225       11.3088000267        3.0341628156  MEMB      30              0.0000000000
      4874        82  POPC      C311           23.9366201217       12.2385703360        3.0725546078  MEMB      30              0.0000000000
      4875        82  POPC      H11X           24.5631916676       11.6091872077        3.7367394808  MEMB      30              0.0000000000
      4876        82  POPC      H11Y           24.3198580311       13.2805460990        3.1297395767  MEMB      30              0.0000000000
      4877        82  POPC      C312           24.1018852422       11.6925538006        1.6582427255  MEMB      30              0.0000000000
      4878        82  POPC      H12X           23.6699519738       12.4319329085        0.9502094958  MEMB      30              0.0000000000
      4879        82  POPC      H12Y           23.4959653661       10.7609985795        1.5909546972  MEMB      30              0.0000000000
      4880        82  POPC      C313           25.5347209639       11.3232586310        1.2445814704  MEMB      30              0.0000000000
      4881        82  POPC      H13X           25.5055276921       11.1147553370        0.1507678725  MEMB      30              0.0000000000
      4882        82  POPC      H13Y           25.8347233000       10.3842474863        1.7574179527  MEMB      30              0.0000000000
      4883        82  POPC      C314           26.5850776017       12.4143181231        1.4784540138  MEMB      30              0.0000000000
      4884        82  POPC      H14X           26.9391135735       12.4251539706        2.5304708266  MEMB      30              0.0000000000
      4885        82  POPC      H14Y           26.0998500320       13.3951322592        1.3146976550  MEMB      30              0.0000000000
      4886        82  POPC      C315           27.7762606663       12.3223087908        0.5103091831  MEMB      30              0.0000000000
      4887        82  POPC      H15X           27.4798229616       11.8101535417       -0.4303229920  MEMB      30              0.0000000000
      4888        82  POPC      H15Y           28.6042781859       11.7367983419        0.9630096062  MEMB      30              0.0000000000
      4889        82  POPC      C316           28.3400270305       13.6953183645        0.1997729075  MEMB      30              0.0000000000
      4890        82  POPC      H16X           27.6975031787       14.2676195272       -0.4961132260  MEMB      30              0.0000000000
      4891        82  POPC      H16Y           29.3682197158       13.6209270263       -0.2194974033  MEMB      30              0.0000000000
      4892        82  POPC      H16Z           28.3650513655       14.2420144117        1.1629601526  MEMB      30              0.0000000000
      4893        83  POPC      N             -25.4870016766       -3.3178144132       19.2337185757  MEMB      31              0.0000000000
      4894        83  POPC      C12           -26.1301184299       -1.9431503048       19.2080728164  MEMB      31              0.0000000000
      4895        83  POPC      H12A          -26.3911999067       -1.6606084479       20.2251513798  MEMB      31              0.0000000000
      4896        83  POPC      H12B          -27.0662674747       -1.9691497943       18.6654035659  MEMB      31              0.0000000000
      4897        83  POPC      C13           -24.3279373865       -3.3257605395       20.1781638429  MEMB      31              0.0000000000
      4898        83  POPC      H13A          -24.6436139814       -3.4401722997       21.1945562933  MEMB      31              0.0000000000
      4899        83  POPC      H13B          -23.6068749681       -4.1038837375       19.9125666975  MEMB      31              0.0000000000
      4900        83  POPC      H13C          -23.8108463998       -2.3739795964       20.0544609985  MEMB      31              0.0000000000
      4901        83  POPC      C14           -26.4736882584       -4.3644873949       19.5958753485  MEMB      31              0.0000000000
      4902        83  POPC      H14A          -27.2644894508       -4.4123569123       18.8582059946  MEMB      31              0.0000000000
      4903        83  POPC      H14B          -26.0100859700       -5.3463687306       19.6182479089  MEMB      31              0.0000000000
      4904        83  POPC      H14C          -26.9445205690       -4.1057572895       20.5383484845  MEMB      31              0.0000000000
      4905        83  POPC      C15           -24.9128045203       -3.6467705948       17.9159092048  MEMB      31              0.0000000000
      4906        83  POPC      H15A          -24.0940774243       -2.9692385565       17.7073759229  MEMB      31              0.0000000000
      4907        83  POPC      H15B          -25.6346249588       -3.5952331312       17.1145952394  MEMB      31              0.0000000000
      4908        83  POPC      H15C          -24.4949339563       -4.6554234825       17.8983569322  MEMB      31              0.0000000000
      4909        83  POPC      C11           -25.2673814857       -0.8003420763       18.6475886061  MEMB      31              0.0000000000
      4910        83  POPC      H11A          -25.9478553320        0.0768269923       18.4797796862  MEMB      31              0.0000000000
      4911        83  POPC      H11B          -24.8484262784       -1.0577038421       17.6515727079  MEMB      31              0.0000000000
      4912        83  POPC      P             -23.8175934264        0.9888847422       19.8156533644  MEMB      31              0.0000000000
      4913        83  POPC      O13           -22.5542169973        1.0210989732       20.5912354866  MEMB      31              0.0000000000
      4914        83  POPC      O14           -24.9709633857        1.6930684821       20.3892351635  MEMB      31              0.0000000000
      4915        83  POPC      O12           -24.2010579313       -0.5288766941       19.5629060350  MEMB      31              0.0000000000
      4916        83  POPC      O11           -23.5474705106        1.4590227447       18.3280250379  MEMB      31              0.0000000000
      4917        83  POPC      C1            -22.5141333197        0.8961637606       17.5111243959  MEMB      31              0.0000000000
      4918        83  POPC      HA            -22.1578189991       -0.0825371802       17.9050757839  MEMB      31              0.0000000000
      4919        83  POPC      HB            -21.6433061601        1.5916034259       17.5399219002  MEMB      31              0.0000000000
      4920        83  POPC      C2            -22.8934018835        0.7154604714       15.9885945468  MEMB      31              0.0000000000
      4921        83  POPC      HS            -22.3661906898        1.5475811822       15.4646702003  MEMB      31              0.0000000000
      4922        83  POPC      O21           -24.3172463227        0.7001088104       15.7486089140  MEMB      31              0.0000000000
      4923        83  POPC      C21           -24.7392509126        1.5304138899       14.7890207077  MEMB      31              0.0000000000
      4924        83  POPC      O22           -24.1033006478        2.4619270345       14.3421147416  MEMB      31              0.0000000000
      4925        83  POPC      C22           -26.0557900988        0.9597928662       14.2136624231  MEMB      31              0.0000000000
      4926        83  POPC      H2R           -26.8964608524        1.3487472009       14.8204097317  MEMB      31              0.0000000000
      4927        83  POPC      H2S           -26.0067616489       -0.1414384289       14.3389937361  MEMB      31              0.0000000000
      4928        83  POPC      C3            -22.3659084074       -0.6119343041       15.3686040709  MEMB      31              0.0000000000
      4929        83  POPC      HX            -23.2458436903       -1.2506422758       15.1237086970  MEMB      31              0.0000000000
      4930        83  POPC      HY            -21.7935046282       -1.1743545702       16.1367976079  MEMB      31              0.0000000000
      4931        83  POPC      O31           -21.5226964750       -0.4224469748       14.2111600376  MEMB      31              0.0000000000
      4932        83  POPC      C31           -22.1095942762       -0.2884660973       13.0284004131  MEMB      31              0.0000000000
      4933        83  POPC      O32           -23.3004355951       -0.3896284311       12.8111809091  MEMB      31              0.0000000000
      4934        83  POPC      C32           -21.0141973693       -0.0467763311       11.9852807812  MEMB      31              0.0000000000
      4935        83  POPC      H2X           -20.5359596547       -1.0060501846       11.7119951749  MEMB      31              0.0000000000
      4936        83  POPC      H2Y           -20.2570748158        0.5665992008       12.5079504809  MEMB      31              0.0000000000
      4937        83  POPC      C23           -26.2632298389        1.2840343340       12.7096391393  MEMB      31              0.0000000000
      4938        83  POPC      H3R           -25.2718699725        1.3881369058       12.2115968153  MEMB      31              0.0000000000
      4939        83  POPC      H3S           -26.7878292290        2.2588819378       12.6202699766  MEMB      31              0.0000000000
      4940        83  POPC      C24           -27.0633281356        0.2169395214       11.9363122458  MEMB      31              0.0000000000
      4941        83  POPC      H4R           -27.9848323998       -0.0106897356       12.5111921083  MEMB      31              0.0000000000
      4942        83  POPC      H4S           -26.4723768426       -0.7241668050       11.8693109348  MEMB      31              0.0000000000
      4943        83  POPC      C25           -27.4704965157        0.6674539026       10.5132471481  MEMB      31              0.0000000000
      4944        83  POPC      H5R           -27.8181902498        1.7226867072       10.5622728467  MEMB      31              0.0000000000
      4945        83  POPC      H5S           -28.3241222863        0.0478018054       10.1594841912  MEMB      31              0.0000000000
      4946        83  POPC      C26           -26.3118345740        0.5473678267        9.5043011525  MEMB      31              0.0000000000
      4947        83  POPC      H6R           -26.2211414401       -0.5038773284        9.1528251596  MEMB      31              0.0000000000
      4948        83  POPC      H6S           -25.3786720852        0.7717859484       10.0698932932  MEMB      31              0.0000000000
      4949        83  POPC      C27           -26.3682130560        1.5126721766        8.2965348466  MEMB      31              0.0000000000
      4950        83  POPC      H7R           -25.3196389446        1.6736238092        7.9751511586  MEMB      31              0.0000000000
      4951        83  POPC      H7S           -26.7420416861        2.5083369146        8.6145672536  MEMB      31              0.0000000000
      4952        83  POPC      C28           -27.1771804646        0.9835289566        7.0894104723  MEMB      31              0.0000000000
      4953        83  POPC      H8R           -28.1651805697        1.4943437494        7.1075067954  MEMB      31              0.0000000000
      4954        83  POPC      H8S           -27.3597109830       -0.0996501290        7.2731949607  MEMB      31              0.0000000000
      4955        83  POPC      C29           -26.5461012633        1.1631142675        5.7253634853  MEMB      31              0.0000000000
      4956        83  POPC      H91           -25.8338086465        1.9978216315        5.6354301442  MEMB      31              0.0000000000
      4957        83  POPC      C210          -26.7853289453        0.3873932264        4.6476672707  MEMB      31              0.0000000000
      4958        83  POPC      H101          -26.2674477707        0.5963885748        3.6979670659  MEMB      31              0.0000000000
      4959        83  POPC      C211          -27.7255623276       -0.7913169482        4.6071785968  MEMB      31              0.0000000000
      4960        83  POPC      H11R          -28.3916153619       -0.7740284708        5.4900896767  MEMB      31              0.0000000000
      4961        83  POPC      H11S          -27.1770945461       -1.7550885889        4.6833859505  MEMB      31              0.0000000000
      4962        83  POPC      C212          -28.5900497714       -0.8198290787        3.3323949955  MEMB      31              0.0000000000
      4963        83  POPC      H12R          -28.9587707749        0.1962275620        3.0709548055  MEMB      31              0.0000000000
      4964        83  POPC      H12S          -29.4888286174       -1.4460326647        3.5438575484  MEMB      31              0.0000000000
      4965        83  POPC      C213          -27.8702130597       -1.4550016263        2.1321683843  MEMB      31              0.0000000000
      4966        83  POPC      H13R          -27.4909553780       -2.4476614851        2.4776260569  MEMB      31              0.0000000000
      4967        83  POPC      H13S          -26.9880911341       -0.8613659107        1.8225924921  MEMB      31              0.0000000000
      4968        83  POPC      C214          -28.8245711178       -1.7234167066        0.9597276177  MEMB      31              0.0000000000
      4969        83  POPC      H14R          -29.8237771189       -1.9349437730        1.3911368768  MEMB      31              0.0000000000
      4970        83  POPC      H14S          -28.5048533741       -2.6584648786        0.4452253615  MEMB      31              0.0000000000
      4971        83  POPC      C215          -28.9452434170       -0.6541414757       -0.1454704864  MEMB      31              0.0000000000
      4972        83  POPC      H15R          -29.9772362968       -0.6937571606       -0.5501889520  MEMB      31              0.0000000000
      4973        83  POPC      H15S          -28.2842229474       -0.9630314107       -0.9847763189  MEMB      31              0.0000000000
      4974        83  POPC      C216          -28.5971133967        0.8076216344        0.1868189015  MEMB      31              0.0000000000
      4975        83  POPC      H16R          -27.5823337153        0.8582370770        0.6373350332  MEMB      31              0.0000000000
      4976        83  POPC      H16S          -29.2935876952        1.2377377806        0.9324633277  MEMB      31              0.0000000000
      4977        83  POPC      C217          -28.6016146816        1.6501512088       -1.1056640672  MEMB      31              0.0000000000
      4978        83  POPC      H17R          -29.6513536971        1.8307508964       -1.4139093904  MEMB      31              0.0000000000
      4979        83  POPC      H17S          -28.1486706073        1.0508881830       -1.9284794066  MEMB      31              0.0000000000
      4980        83  POPC      C218          -27.8335497383        2.9693138029       -1.0188890632  MEMB      31              0.0000000000
      4981        83  POPC      H18R          -26.8115602599        2.7940900695       -0.6143074466  MEMB      31              0.0000000000
      4982        83  POPC      H18S          -28.3615553164        3.6887124265       -0.3560389852  MEMB      31              0.0000000000
      4983        83  POPC      H18T          -27.7310579486        3.4238894165       -2.0308965339  MEMB      31              0.0000000000
      4984        83  POPC      C33           -21.4958394522        0.7332702504       10.7409985805  MEMB      31              0.0000000000
      4985        83  POPC      H3X           -20.6182495689        1.2502779177       10.2860923644  MEMB      31              0.0000000000
      4986        83  POPC      H3Y           -22.2103858426        1.5287631556       11.0515627887  MEMB      31              0.0000000000
      4987        83  POPC      C34           -22.1421774767       -0.1205239155        9.6385827557  MEMB      31              0.0000000000
      4988        83  POPC      H4X           -22.9760628537       -0.7239795884       10.0674054430  MEMB      31              0.0000000000
      4989        83  POPC      H4Y           -21.3964972487       -0.8206755118        9.2056158019  MEMB      31              0.0000000000
      4990        83  POPC      C35           -22.6991862613        0.7975588593        8.5436550842  MEMB      31              0.0000000000
      4991        83  POPC      H5X           -21.9025064566        1.4928382521        8.2009335960  MEMB      31              0.0000000000
      4992        83  POPC      H5Y           -23.4914360906        1.4228120334        9.0155032501  MEMB      31              0.0000000000
      4993        83  POPC      C36           -23.2867808591        0.0882505380        7.3148690392  MEMB      31              0.0000000000
      4994        83  POPC      H6X           -23.8534363530        0.8630224133        6.7473930018  MEMB      31              0.0000000000
      4995        83  POPC      H6Y           -24.0145843870       -0.6972986797        7.6102647208  MEMB      31              0.0000000000
      4996        83  POPC      C37           -22.2329491707       -0.4655250735        6.3463433831  MEMB      31              0.0000000000
      4997        83  POPC      H7X           -21.7822705053       -1.3988349296        6.7432906917  MEMB      31              0.0000000000
      4998        83  POPC      H7Y           -21.4239536617        0.2977965502        6.2700893272  MEMB      31              0.0000000000
      4999        83  POPC      C38           -22.8034445667       -0.6746626314        4.9334889943  MEMB      31              0.0000000000
      5000        83  POPC      H8X           -22.0289918828       -0.4063672627        4.1824365860  MEMB      31              0.0000000000
      5001        83  POPC      H8Y           -23.6533962144        0.0282152768        4.7840048187  MEMB      31              0.0000000000
      5002        83  POPC      C39           -23.2856470537       -2.1015734020        4.6365992101  MEMB      31              0.0000000000
      5003        83  POPC      H9X           -23.7729539928       -2.5174599302        5.5474306142  MEMB      31              0.0000000000
      5004        83  POPC      H9Y           -22.4078495882       -2.7429573868        4.4019725228  MEMB      31              0.0000000000
      5005        83  POPC      C310          -24.3065875304       -2.1588722699        3.4835117998  MEMB      31              0.0000000000
      5006        83  POPC      H10X          -25.2397973526       -1.6886293292        3.8498362164  MEMB      31              0.0000000000
      5007        83  POPC      H10Y          -24.5427093951       -3.2196073906        3.2459250292  MEMB      31              0.0000000000
      5008        83  POPC      C311          -23.8943552373       -1.4254281258        2.1944022894  MEMB      31              0.0000000000
      5009        83  POPC      H11X          -23.5830057470       -0.3853610021        2.4217088248  MEMB      31              0.0000000000
      5010        83  POPC      H11Y          -24.7815567020       -1.3567537426        1.5316855505  MEMB      31              0.0000000000
      5011        83  POPC      C312          -22.7799661670       -2.1737468916        1.4575956782  MEMB      31              0.0000000000
      5012        83  POPC      H12X          -23.1749419408       -3.1899553815        1.2192118452  MEMB      31              0.0000000000
      5013        83  POPC      H12Y          -21.9515214042       -2.2976100109        2.1698502336  MEMB      31              0.0000000000
      5014        83  POPC      C313          -22.2880115573       -1.5455806062        0.1400628613  MEMB      31              0.0000000000
      5015        83  POPC      H13X          -23.1436092734       -1.0419424822       -0.3311780889  MEMB      31              0.0000000000
      5016        83  POPC      H13Y          -21.9855924569       -2.3804016557       -0.5369161437  MEMB      31              0.0000000000
      5017        83  POPC      C314          -21.0893085113       -0.5745960126        0.1785237800  MEMB      31              0.0000000000
      5018        83  POPC      H14X          -20.9085497248       -0.2075123304       -0.8591779192  MEMB      31              0.0000000000
      5019        83  POPC      H14Y          -20.1823635581       -1.1430677851        0.4738189692  MEMB      31              0.0000000000
      5020        83  POPC      C315          -21.2096377098        0.6541098499        1.0939653082  MEMB      31              0.0000000000
      5021        83  POPC      H15X          -20.2151033681        1.1581531915        1.0964465373  MEMB      31              0.0000000000
      5022        83  POPC      H15Y          -21.4075995010        0.3209984713        2.1347285414  MEMB      31              0.0000000000
      5023        83  POPC      C316          -22.2673272960        1.6826214722        0.6826181424  MEMB      31              0.0000000000
      5024        83  POPC      H16X          -22.1591694372        1.9541377517       -0.3893731783  MEMB      31              0.0000000000
      5025        83  POPC      H16Y          -22.1551087136        2.6081016100        1.2874822426  MEMB      31              0.0000000000
      5026        83  POPC      H16Z          -23.2891262333        1.2806710152        0.8427289097  MEMB      31              0.0000000000
      5027        84  POPC      N              23.2971734489       23.3523893454       19.5603139877  MEMB      32              0.0000000000
      5028        84  POPC      C12            22.6445333648       22.4702501219       20.6137312217  MEMB      32              0.0000000000
      5029        84  POPC      H12A           21.9806051129       23.0768929420       21.2287528917  MEMB      32              0.0000000000
      5030        84  POPC      H12B           23.4226367711       22.0826817786       21.2683105208  MEMB      32              0.0000000000
      5031        84  POPC      C13            24.4591382845       22.5715669510       19.0166554236  MEMB      32              0.0000000000
      5032        84  POPC      H13A           25.2441528243       22.4701312551       19.7642075995  MEMB      32              0.0000000000
      5033        84  POPC      H13B           24.1305117789       21.5451982160       18.7929161782  MEMB      32              0.0000000000
      5034        84  POPC      H13C           24.8725430853       22.9874484834       18.1179674006  MEMB      32              0.0000000000
      5035        84  POPC      C14            22.2861715788       23.6323529571       18.4904395297  MEMB      32              0.0000000000
      5036        84  POPC      H14A           21.9533251447       22.6756188404       18.0824364769  MEMB      32              0.0000000000
      5037        84  POPC      H14B           21.4226637917       24.1153385906       18.9410122760  MEMB      32              0.0000000000
      5038        84  POPC      H14C           22.6570018436       24.2421941174       17.6805416091  MEMB      32              0.0000000000
      5039        84  POPC      C15            23.7554643399       24.5965967905       20.2428155864  MEMB      32              0.0000000000
      5040        84  POPC      H15A           24.3007141905       25.2388027775       19.5819421512  MEMB      32              0.0000000000
      5041        84  POPC      H15B           24.4229703334       24.3734467852       21.0814967770  MEMB      32              0.0000000000
      5042        84  POPC      H15C           22.9177046923       25.1624227101       20.6566377386  MEMB      32              0.0000000000
      5043        84  POPC      C11            21.8567680612       21.2414438085       20.1164343614  MEMB      32              0.0000000000
      5044        84  POPC      H11A           20.9900964915       21.5603672014       19.4936370666  MEMB      32              0.0000000000
      5045        84  POPC      H11B           21.4399360834       20.7668108120       21.0436564813  MEMB      32              0.0000000000
      5046        84  POPC      P              22.2804958274       18.8052663246       19.3319014957  MEMB      32              0.0000000000
      5047        84  POPC      O13            20.8846503234       18.6690158776       19.8330772728  MEMB      32              0.0000000000
      5048        84  POPC      O14            23.3341847784       17.9879907784       19.9742782971  MEMB      32              0.0000000000
      5049        84  POPC      O12            22.7037421171       20.3495255008       19.3776148575  MEMB      32              0.0000000000
      5050        84  POPC      O11            22.2946437814       18.4519634089       17.7985514015  MEMB      32              0.0000000000
      5051        84  POPC      C1             22.5342432588       19.4189540948       16.7965841292  MEMB      32              0.0000000000
      5052        84  POPC      HA             22.9491224999       18.9265023820       15.8880446772  MEMB      32              0.0000000000
      5053        84  POPC      HB             23.2972752727       20.1659374162       17.1079452017  MEMB      32              0.0000000000
      5054        84  POPC      C2             21.2074703046       20.0902859518       16.4195060428  MEMB      32              0.0000000000
      5055        84  POPC      HS             20.6253681688       20.2943202830       17.3511586676  MEMB      32              0.0000000000
      5056        84  POPC      O21            20.5299759770       19.2202314246       15.5117372672  MEMB      32              0.0000000000
      5057        84  POPC      C21            19.3840131712       18.7283814125       15.8464452923  MEMB      32              0.0000000000
      5058        84  POPC      O22            18.5653090060       19.2189312956       16.6036368089  MEMB      32              0.0000000000
      5059        84  POPC      C22            19.1925089558       17.4089197628       15.1007858822  MEMB      32              0.0000000000
      5060        84  POPC      H2R            18.2069087016       17.4393904599       14.5980542107  MEMB      32              0.0000000000
      5061        84  POPC      H2S            19.1664751175       16.6376490801       15.8977741209  MEMB      32              0.0000000000
      5062        84  POPC      C3             21.5089188214       21.4011809195       15.7028915616  MEMB      32              0.0000000000
      5063        84  POPC      HX             22.2375761313       21.9847052266       16.2982341119  MEMB      32              0.0000000000
      5064        84  POPC      HY             20.5325167042       21.9462463212       15.6843037111  MEMB      32              0.0000000000
      5065        84  POPC      O31            22.0697233949       21.1022676862       14.4012179069  MEMB      32              0.0000000000
      5066        84  POPC      C31            21.6757079778       21.9883215946       13.4993181482  MEMB      32              0.0000000000
      5067        84  POPC      O32            21.1191217893       23.0346331688       13.7839931320  MEMB      32              0.0000000000
      5068        84  POPC      C32            22.0083460873       21.5128887687       12.0897135155  MEMB      32              0.0000000000
      5069        84  POPC      H2X            21.2894350479       20.7281075433       11.7911106348  MEMB      32              0.0000000000
      5070        84  POPC      H2Y            23.0270227972       21.0714326180       12.1087447696  MEMB      32              0.0000000000
      5071        84  POPC      C23            20.3243928205       17.0354639732       14.1000405306  MEMB      32              0.0000000000
      5072        84  POPC      H3R            20.2753206321       15.9319909345       13.9523872059  MEMB      32              0.0000000000
      5073        84  POPC      H3S            21.3327049799       17.2488220892       14.5202072452  MEMB      32              0.0000000000
      5074        84  POPC      C24            20.1453102937       17.7141774285       12.7328882219  MEMB      32              0.0000000000
      5075        84  POPC      H4R            20.4896756566       18.7701313791       12.7767836723  MEMB      32              0.0000000000
      5076        84  POPC      H4S            19.0547207589       17.7047232795       12.5161980702  MEMB      32              0.0000000000
      5077        84  POPC      C25            20.8251649635       16.9758198700       11.5762856996  MEMB      32              0.0000000000
      5078        84  POPC      H5R            20.6431882205       15.8890602900       11.7505651923  MEMB      32              0.0000000000
      5079        84  POPC      H5S            21.9248528218       17.1287144427       11.5773486290  MEMB      32              0.0000000000
      5080        84  POPC      C26            20.2097840496       17.2845031284       10.2015386827  MEMB      32              0.0000000000
      5081        84  POPC      H6R            19.1179219168       17.4701253251       10.2913420238  MEMB      32              0.0000000000
      5082        84  POPC      H6S            20.3264798771       16.3615281963        9.5841306524  MEMB      32              0.0000000000
      5083        84  POPC      C27            20.8606602291       18.4301448332        9.4133138234  MEMB      32              0.0000000000
      5084        84  POPC      H7R            21.9604649597       18.2548127414        9.3761390827  MEMB      32              0.0000000000
      5085        84  POPC      H7S            20.6822999062       19.4058972168        9.9145498952  MEMB      32              0.0000000000
      5086        84  POPC      C28            20.3054201218       18.4388035287        7.9758314781  MEMB      32              0.0000000000
      5087        84  POPC      H8R            19.2340787758       18.7303058500        7.9925656705  MEMB      32              0.0000000000
      5088        84  POPC      H8S            20.3205381514       17.3800180278        7.6355156208  MEMB      32              0.0000000000
      5089        84  POPC      C29            21.0617770269       19.3217765443        7.0188764967  MEMB      32              0.0000000000
      5090        84  POPC      H91            21.0513750942       20.3968090169        7.2570897550  MEMB      32              0.0000000000
      5091        84  POPC      C210           21.7299948761       18.8916952878        5.9326412424  MEMB      32              0.0000000000
      5092        84  POPC      H101           22.2054936501       19.6278131858        5.2694444735  MEMB      32              0.0000000000
      5093        84  POPC      C211           21.8490411533       17.4596887105        5.4707308557  MEMB      32              0.0000000000
      5094        84  POPC      H11R           22.1682588156       16.8090642160        6.3163608042  MEMB      32              0.0000000000
      5095        84  POPC      H11S           22.6486393138       17.3807187329        4.7015139492  MEMB      32              0.0000000000
      5096        84  POPC      C212           20.5495639467       16.8706084130        4.8863973190  MEMB      32              0.0000000000
      5097        84  POPC      H12R           19.8159317724       16.6918392569        5.7030116465  MEMB      32              0.0000000000
      5098        84  POPC      H12S           20.7842942894       15.8737540639        4.4481249439  MEMB      32              0.0000000000
      5099        84  POPC      C213           19.8739371901       17.7439213066        3.8183038200  MEMB      32              0.0000000000
      5100        84  POPC      H13R           19.5434047200       18.7106916309        4.2553334058  MEMB      32              0.0000000000
      5101        84  POPC      H13S           18.9543193832       17.2159005529        3.4877289359  MEMB      32              0.0000000000
      5102        84  POPC      C214           20.7599295196       18.0026228899        2.5944496371  MEMB      32              0.0000000000
      5103        84  POPC      H14R           21.2858480192       17.0496328283        2.3505104538  MEMB      32              0.0000000000
      5104        84  POPC      H14S           21.5332797684       18.7660757943        2.8254695977  MEMB      32              0.0000000000
      5105        84  POPC      C215           19.9541916763       18.4153819933        1.3557250207  MEMB      32              0.0000000000
      5106        84  POPC      H15R           19.0639543700       17.7574923838        1.2745770301  MEMB      32              0.0000000000
      5107        84  POPC      H15S           20.5840845598       18.2239095758        0.4628514632  MEMB      32              0.0000000000
      5108        84  POPC      C216           19.5193165858       19.8870069465        1.3151701950  MEMB      32              0.0000000000
      5109        84  POPC      H16R           20.4322785350       20.5225950293        1.3665405068  MEMB      32              0.0000000000
      5110        84  POPC      H16S           18.8908402215       20.1269172579        2.1997022988  MEMB      32              0.0000000000
      5111        84  POPC      C217           18.7573789236       20.2276413298        0.0233244846  MEMB      32              0.0000000000
      5112        84  POPC      H17R           19.3086077186       19.7870716535       -0.8384015788  MEMB      32              0.0000000000
      5113        84  POPC      H17S           18.7718256650       21.3296547454       -0.1225890069  MEMB      32              0.0000000000
      5114        84  POPC      C218           17.3023075764       19.7494660135        0.0012976706  MEMB      32              0.0000000000
      5115        84  POPC      H18R           17.2180684357       18.7131943808        0.3924324779  MEMB      32              0.0000000000
      5116        84  POPC      H18S           16.9011427752       19.7587274067       -1.0355877466  MEMB      32              0.0000000000
      5117        84  POPC      H18T           16.6613325603       20.4059293404        0.6288869805  MEMB      32              0.0000000000
      5118        84  POPC      C33            21.9691871487       22.6924612103       11.0944835913  MEMB      32              0.0000000000
      5119        84  POPC      H3X            22.4262525188       22.3708037639       10.1321051411  MEMB      32              0.0000000000
      5120        84  POPC      H3Y            22.6005615140       23.5184198633       11.5006124258  MEMB      32              0.0000000000
      5121        84  POPC      C34            20.5620212910       23.2493436491       10.8046721178  MEMB      32              0.0000000000
      5122        84  POPC      H4X            19.9304002539       23.2256041093       11.7198726786  MEMB      32              0.0000000000
      5123        84  POPC      H4Y            20.0496558823       22.6144636710       10.0504396786  MEMB      32              0.0000000000
      5124        84  POPC      C35            20.6278431020       24.7140251079       10.3412176014  MEMB      32              0.0000000000
      5125        84  POPC      H5X            20.9983083963       25.3361198732       11.1892598619  MEMB      32              0.0000000000
      5126        84  POPC      H5Y            19.6027202313       25.0713981380       10.1018889039  MEMB      32              0.0000000000
      5127        84  POPC      C36            21.5528802489       24.9264204727        9.1362434882  MEMB      32              0.0000000000
      5128        84  POPC      H6X            22.6102155406       24.7384140230        9.4263259591  MEMB      32              0.0000000000
      5129        84  POPC      H6Y            21.4947742802       25.9907520944        8.8191585783  MEMB      32              0.0000000000
      5130        84  POPC      C37            21.1758477372       24.0046140260        7.9743756367  MEMB      32              0.0000000000
      5131        84  POPC      H7X            20.0884987495       24.1092509203        7.7671973636  MEMB      32              0.0000000000
      5132        84  POPC      H7Y            21.3422888403       22.9446548654        8.2657109491  MEMB      32              0.0000000000
      5133        84  POPC      C38            21.9631417440       24.2518202457        6.6875545521  MEMB      32              0.0000000000
      5134        84  POPC      H8X            23.0379767894       24.0235030551        6.8639693623  MEMB      32              0.0000000000
      5135        84  POPC      H8Y            21.8857815673       25.3188394390        6.3789588684  MEMB      32              0.0000000000
      5136        84  POPC      C39            21.4038850060       23.3460039317        5.5874861190  MEMB      32              0.0000000000
      5137        84  POPC      H9X            20.3896679294       23.7040631575        5.3232129048  MEMB      32              0.0000000000
      5138        84  POPC      H9Y            21.2845200508       22.3107651405        5.9738926826  MEMB      32              0.0000000000
      5139        84  POPC      C310           22.2308139694       23.3102427346        4.3050431931  MEMB      32              0.0000000000
      5140        84  POPC      H10X           22.5529088823       24.3412866185        4.0460690540  MEMB      32              0.0000000000
      5141        84  POPC      H10Y           21.5391822946       22.9448148308        3.5113559431  MEMB      32              0.0000000000
      5142        84  POPC      C311           23.4366357784       22.3702424065        4.4076413701  MEMB      32              0.0000000000
      5143        84  POPC      H11X           23.0996482850       21.4507502362        4.9340391178  MEMB      32              0.0000000000
      5144        84  POPC      H11Y           24.2110138566       22.8412595763        5.0535750872  MEMB      32              0.0000000000
      5145        84  POPC      C312           24.0799733873       21.9280865549        3.0777012073  MEMB      32              0.0000000000
      5146        84  POPC      H12X           24.1937283174       20.8179182226        3.1250848327  MEMB      32              0.0000000000
      5147        84  POPC      H12Y           25.1040019429       22.3565234335        3.0040275193  MEMB      32              0.0000000000
      5148        84  POPC      C313           23.3174045170       22.2293153535        1.7760332557  MEMB      32              0.0000000000
      5149        84  POPC      H13X           22.2707640404       21.8659642209        1.8226483750  MEMB      32              0.0000000000
      5150        84  POPC      H13Y           23.8250470140       21.6424426876        0.9739714427  MEMB      32              0.0000000000
      5151        84  POPC      C314           23.3640663631       23.6937298600        1.3123940834  MEMB      32              0.0000000000
      5152        84  POPC      H14X           24.4358284837       23.9693750852        1.2862086486  MEMB      32              0.0000000000
      5153        84  POPC      H14Y           22.8685491311       24.3901599933        2.0152735350  MEMB      32              0.0000000000
      5154        84  POPC      C315           22.6906357189       23.8415071643       -0.0571941575  MEMB      32              0.0000000000
      5155        84  POPC      H15X           21.5870364083       23.8515001511        0.0885154947  MEMB      32              0.0000000000
      5156        84  POPC      H15Y           22.9555929662       22.9262270827       -0.6346975786  MEMB      32              0.0000000000
      5157        84  POPC      C316           23.1043723446       25.0361978990       -0.9110138794  MEMB      32              0.0000000000
      5158        84  POPC      H16X           22.5310995751       25.0890577019       -1.8582573218  MEMB      32              0.0000000000
      5159        84  POPC      H16Y           24.1461563760       24.8710341523       -1.2278098546  MEMB      32              0.0000000000
      5160        84  POPC      H16Z           23.0229879997       26.0023741998       -0.3701585818  MEMB      32              0.0000000000
      5161        85  POPC      N             -26.1202255867      -19.2723302289       20.8738181674  MEMB      33              0.0000000000
      5162        85  POPC      C12           -26.2992049640      -19.0850201569       19.3674068951  MEMB      33              0.0000000000
      5163        85  POPC      H12A          -27.3383438121      -19.2610224480       19.0889727504  MEMB      33              0.0000000000
      5164        85  POPC      H12B          -25.7326220536      -19.8518908116       18.8524696781  MEMB      33              0.0000000000
      5165        85  POPC      C13           -24.6690208982      -19.1078242053       21.2208877397  MEMB      33              0.0000000000
      5166        85  POPC      H13A          -24.3333073701      -18.1252792133       20.8669210540  MEMB      33              0.0000000000
      5167        85  POPC      H13B          -24.4731552909      -19.1146746548       22.2898940650  MEMB      33              0.0000000000
      5168        85  POPC      H13C          -24.0707569821      -19.8514957800       20.7276427313  MEMB      33              0.0000000000
      5169        85  POPC      C14           -26.8812158550      -18.2090751912       21.6032181213  MEMB      33              0.0000000000
      5170        85  POPC      H14A          -26.5416664388      -18.1559760020       22.6246768294  MEMB      33              0.0000000000
      5171        85  POPC      H14B          -26.6759370734      -17.2605484409       21.1065664200  MEMB      33              0.0000000000
      5172        85  POPC      H14C          -27.9455761442      -18.3852937757       21.5759026162  MEMB      33              0.0000000000
      5173        85  POPC      C15           -26.6007225492      -20.6048582580       21.3041026575  MEMB      33              0.0000000000
      5174        85  POPC      H15A          -26.6252241011      -20.6911056960       22.3844187923  MEMB      33              0.0000000000
      5175        85  POPC      H15B          -25.9673630401      -21.3978221199       20.9282731802  MEMB      33              0.0000000000
      5176        85  POPC      H15C          -27.6039962341      -20.8193240007       20.9198377043  MEMB      33              0.0000000000
      5177        85  POPC      C11           -25.8785735374      -17.7279994184       18.7312682122  MEMB      33              0.0000000000
      5178        85  POPC      H11A          -26.7839759282      -17.2354626950       18.3097781126  MEMB      33              0.0000000000
      5179        85  POPC      H11B          -25.2154368926      -17.9843784866       17.8648989124  MEMB      33              0.0000000000
      5180        85  POPC      P             -24.2065287181      -15.7841896766       19.1307392001  MEMB      33              0.0000000000
      5181        85  POPC      O13           -22.9153580750      -16.4749732903       18.9625280807  MEMB      33              0.0000000000
      5182        85  POPC      O14           -24.1915710356      -14.6294802582       20.0511025027  MEMB      33              0.0000000000
      5183        85  POPC      O12           -25.2531777558      -16.8301473030       19.6546466875  MEMB      33              0.0000000000
      5184        85  POPC      O11           -24.8238921105      -15.3301851415       17.7330765095  MEMB      33              0.0000000000
      5185        85  POPC      C1            -25.9975048148      -14.4917682942       17.8116512772  MEMB      33              0.0000000000
      5186        85  POPC      HA            -25.7190600726      -13.4716901848       18.1756484259  MEMB      33              0.0000000000
      5187        85  POPC      HB            -26.7552223237      -14.9010515985       18.5241365590  MEMB      33              0.0000000000
      5188        85  POPC      C2            -26.7450406785      -14.2714275226       16.4549689457  MEMB      33              0.0000000000
      5189        85  POPC      HS            -27.5854626439      -13.5797992310       16.7002466778  MEMB      33              0.0000000000
      5190        85  POPC      O21           -27.2349879993      -15.4716329989       15.8415914850  MEMB      33              0.0000000000
      5191        85  POPC      C21           -28.5092281387      -15.7280915883       15.9470372924  MEMB      33              0.0000000000
      5192        85  POPC      O22           -29.2189168262      -15.4828894310       16.9091343144  MEMB      33              0.0000000000
      5193        85  POPC      C22           -28.9858702794      -16.3731012843       14.6474244310  MEMB      33              0.0000000000
      5194        85  POPC      H2R           -29.7709234367      -15.7221896981       14.2085713145  MEMB      33              0.0000000000
      5195        85  POPC      H2S           -29.4448104841      -17.3384613924       14.9436384776  MEMB      33              0.0000000000
      5196        85  POPC      C3            -25.8964988991      -13.5530038453       15.3696295530  MEMB      33              0.0000000000
      5197        85  POPC      HX            -25.3465639371      -12.7225331605       15.8736591908  MEMB      33              0.0000000000
      5198        85  POPC      HY            -26.6022751322      -13.1051989467       14.6358766013  MEMB      33              0.0000000000
      5199        85  POPC      O31           -25.0510088951      -14.4820077618       14.6504062351  MEMB      33              0.0000000000
      5200        85  POPC      C31           -23.8969489472      -13.9827710438       14.2419895565  MEMB      33              0.0000000000
      5201        85  POPC      O32           -23.5339631356      -12.8309785803       14.4039117581  MEMB      33              0.0000000000
      5202        85  POPC      C32           -23.1048730329      -15.1058496510       13.5503529688  MEMB      33              0.0000000000
      5203        85  POPC      H2X           -22.7164547473      -15.7716832262       14.3499069273  MEMB      33              0.0000000000
      5204        85  POPC      H2Y           -22.2607001491      -14.6201544504       13.0331169565  MEMB      33              0.0000000000
      5205        85  POPC      C23           -27.8849288528      -16.6541583999       13.5888526819  MEMB      33              0.0000000000
      5206        85  POPC      H3R           -27.0737799972      -17.2592157538       14.0536836277  MEMB      33              0.0000000000
      5207        85  POPC      H3S           -27.4147918972      -15.7139340490       13.2201084979  MEMB      33              0.0000000000
      5208        85  POPC      C24           -28.4963121649      -17.4433604952       12.4256409099  MEMB      33              0.0000000000
      5209        85  POPC      H4R           -29.1574864776      -16.7589019384       11.8459562593  MEMB      33              0.0000000000
      5210        85  POPC      H4S           -29.1239875202      -18.2531698644       12.8568482922  MEMB      33              0.0000000000
      5211        85  POPC      C25           -27.4948217470      -18.1036098982       11.4737081732  MEMB      33              0.0000000000
      5212        85  POPC      H5R           -26.9351907539      -18.9053107472       12.0028783814  MEMB      33              0.0000000000
      5213        85  POPC      H5S           -26.7537813804      -17.3370613865       11.1631487617  MEMB      33              0.0000000000
      5214        85  POPC      C26           -28.1883753239      -18.6720364371       10.2210617844  MEMB      33              0.0000000000
      5215        85  POPC      H6R           -28.9137397415      -17.9202492947        9.8362745034  MEMB      33              0.0000000000
      5216        85  POPC      H6S           -28.7869763494      -19.5628054773       10.4919277749  MEMB      33              0.0000000000
      5217        85  POPC      C27           -27.2211669199      -19.0352157745        9.0835198997  MEMB      33              0.0000000000
      5218        85  POPC      H7R           -27.5915083630      -19.9633812966        8.5908600849  MEMB      33              0.0000000000
      5219        85  POPC      H7S           -26.2179841650      -19.2696807672        9.5028668415  MEMB      33              0.0000000000
      5220        85  POPC      C28           -27.1357456693      -17.9253820398        8.0166068595  MEMB      33              0.0000000000
      5221        85  POPC      H8R           -28.1588829260      -17.7330218411        7.6236067960  MEMB      33              0.0000000000
      5222        85  POPC      H8S           -26.5309476966      -18.2953062933        7.1587219514  MEMB      33              0.0000000000
      5223        85  POPC      C29           -26.5083452571      -16.6776048421        8.5855942745  MEMB      33              0.0000000000
      5224        85  POPC      H91           -25.4491360351      -16.7904878293        8.8590395213  MEMB      33              0.0000000000
      5225        85  POPC      C210          -27.0975808811      -15.4996189390        8.8521752913  MEMB      33              0.0000000000
      5226        85  POPC      H101          -26.4687246184      -14.6972488459        9.2648641675  MEMB      33              0.0000000000
      5227        85  POPC      C211          -28.5415405832      -15.1049976755        8.6549700491  MEMB      33              0.0000000000
      5228        85  POPC      H11R          -28.8966317142      -14.5991362857        9.5812719696  MEMB      33              0.0000000000
      5229        85  POPC      H11S          -29.2146146482      -15.9747151264        8.4917892110  MEMB      33              0.0000000000
      5230        85  POPC      C212          -28.7027369780      -14.1119553654        7.4873818379  MEMB      33              0.0000000000
      5231        85  POPC      H12R          -27.7951697574      -13.4833736188        7.4438825661  MEMB      33              0.0000000000
      5232        85  POPC      H12S          -29.5530247682      -13.4246759818        7.6892392174  MEMB      33              0.0000000000
      5233        85  POPC      C213          -28.8982245216      -14.7664547599        6.1094775197  MEMB      33              0.0000000000
      5234        85  POPC      H13R          -28.7482683114      -15.8635890979        6.2027217417  MEMB      33              0.0000000000
      5235        85  POPC      H13S          -28.1094215533      -14.3902392579        5.4254091918  MEMB      33              0.0000000000
      5236        85  POPC      C214          -30.2815037295      -14.4724201876        5.5069865704  MEMB      33              0.0000000000
      5237        85  POPC      H14R          -30.4940852443      -13.3845575890        5.5873029971  MEMB      33              0.0000000000
      5238        85  POPC      H14S          -31.0404594654      -14.9929393806        6.1322468069  MEMB      33              0.0000000000
      5239        85  POPC      C215          -30.4661744849      -14.8888757566        4.0326210215  MEMB      33              0.0000000000
      5240        85  POPC      H15R          -30.1970607066      -14.0601729975        3.3479622625  MEMB      33              0.0000000000
      5241        85  POPC      H15S          -31.5531375015      -15.0747284094        3.8783371076  MEMB      33              0.0000000000
      5242        85  POPC      C216          -29.6678562770      -16.1307005784        3.6072092641  MEMB      33              0.0000000000
      5243        85  POPC      H16R          -29.6852284732      -16.8581272218        4.4478808655  MEMB      33              0.0000000000
      5244        85  POPC      H16S          -28.6019214880      -15.8718154734        3.4313672708  MEMB      33              0.0000000000
      5245        85  POPC      C217          -30.2612190545      -16.8251783158        2.3777133899  MEMB      33              0.0000000000
      5246        85  POPC      H17R          -29.6653198226      -16.6108349361        1.4675284811  MEMB      33              0.0000000000
      5247        85  POPC      H17S          -31.2819199681      -16.4196315405        2.1952648202  MEMB      33              0.0000000000
      5248        85  POPC      C218          -30.3608303240      -18.3337532989        2.5630238691  MEMB      33              0.0000000000
      5249        85  POPC      H18R          -31.0179462600      -18.7735175238        1.7840808099  MEMB      33              0.0000000000
      5250        85  POPC      H18S          -30.7872052402      -18.5816584988        3.5539023001  MEMB      33              0.0000000000
      5251        85  POPC      H18T          -29.3581945939      -18.8061313951        2.4941906105  MEMB      33              0.0000000000
      5252        85  POPC      C33           -23.8567077201      -15.9500364864       12.4802918840  MEMB      33              0.0000000000
      5253        85  POPC      H3X           -23.8178683970      -15.3969382265       11.5144772292  MEMB      33              0.0000000000
      5254        85  POPC      H3Y           -24.9258069585      -16.0903349694       12.7489406103  MEMB      33              0.0000000000
      5255        85  POPC      C34           -23.2420472242      -17.3504009801       12.2726760391  MEMB      33              0.0000000000
      5256        85  POPC      H4X           -23.5162450483      -18.0059210304       13.1287268515  MEMB      33              0.0000000000
      5257        85  POPC      H4Y           -22.1358773478      -17.2733715051       12.2670202322  MEMB      33              0.0000000000
      5258        85  POPC      C35           -23.6690244818      -18.0116971584       10.9495851891  MEMB      33              0.0000000000
      5259        85  POPC      H5X           -23.5979184277      -17.2582584524       10.1342191137  MEMB      33              0.0000000000
      5260        85  POPC      H5Y           -24.7294412215      -18.3336492549       11.0262598434  MEMB      33              0.0000000000
      5261        85  POPC      C36           -22.7857112097      -19.2148638959       10.5753998653  MEMB      33              0.0000000000
      5262        85  POPC      H6X           -22.8081592501      -19.9429974081       11.4190315011  MEMB      33              0.0000000000
      5263        85  POPC      H6Y           -21.7363557558      -18.8646221254       10.4580473096  MEMB      33              0.0000000000
      5264        85  POPC      C37           -23.2065216870      -19.9584466546        9.2955918695  MEMB      33              0.0000000000
      5265        85  POPC      H7X           -24.1734061276      -20.4759670813        9.5004855990  MEMB      33              0.0000000000
      5266        85  POPC      H7Y           -22.4575543782      -20.7495228227        9.0728765217  MEMB      33              0.0000000000
      5267        85  POPC      C38           -23.4224599126      -19.0955924657        8.0395327922  MEMB      33              0.0000000000
      5268        85  POPC      H8X           -24.3034539075      -18.4498497765        8.2204685855  MEMB      33              0.0000000000
      5269        85  POPC      H8Y           -23.6934680546      -19.7794924999        7.2024709497  MEMB      33              0.0000000000
      5270        85  POPC      C39           -22.2498055233      -18.2148620433        7.5699919353  MEMB      33              0.0000000000
      5271        85  POPC      H9X           -21.3095109361      -18.8063796977        7.5669455767  MEMB      33              0.0000000000
      5272        85  POPC      H9Y           -22.1054232400      -17.3688118863        8.2768654423  MEMB      33              0.0000000000
      5273        85  POPC      C310          -22.4906765296      -17.6703346447        6.1458769496  MEMB      33              0.0000000000
      5274        85  POPC      H10X          -22.6353374063      -18.5314820022        5.4556704390  MEMB      33              0.0000000000
      5275        85  POPC      H10Y          -21.5960501439      -17.1081060357        5.7969305040  MEMB      33              0.0000000000
      5276        85  POPC      C311          -23.7202939154      -16.7567030182        6.0618391948  MEMB      33              0.0000000000
      5277        85  POPC      H11X          -23.4908941717      -15.8085978544        6.5985127008  MEMB      33              0.0000000000
      5278        85  POPC      H11Y          -24.5850937849      -17.2219605745        6.5789698815  MEMB      33              0.0000000000
      5279        85  POPC      C312          -24.2042463755      -16.4374270686        4.6410253276  MEMB      33              0.0000000000
      5280        85  POPC      H12X          -24.6496137606      -17.3469488117        4.1795234099  MEMB      33              0.0000000000
      5281        85  POPC      H12Y          -23.3423872008      -16.1176446625        4.0154749515  MEMB      33              0.0000000000
      5282        85  POPC      C313          -25.2403645001      -15.3109784831        4.7178201185  MEMB      33              0.0000000000
      5283        85  POPC      H13X          -24.7652729995      -14.4991194060        5.3181996732  MEMB      33              0.0000000000
      5284        85  POPC      H13Y          -26.1363771935      -15.6494715795        5.2835724358  MEMB      33              0.0000000000
      5285        85  POPC      C314          -25.6563493480      -14.7064307794        3.3709838761  MEMB      33              0.0000000000
      5286        85  POPC      H14X          -26.4043302326      -15.3478980520        2.8602510935  MEMB      33              0.0000000000
      5287        85  POPC      H14Y          -24.7540144682      -14.6586559053        2.7176721427  MEMB      33              0.0000000000
      5288        85  POPC      C315          -26.1781500338      -13.2707531669        3.5486973825  MEMB      33              0.0000000000
      5289        85  POPC      H15X          -25.5498532224      -12.5971625827        2.9417047744  MEMB      33              0.0000000000
      5290        85  POPC      H15Y          -26.0167762734      -12.9676602834        4.6024672099  MEMB      33              0.0000000000
      5291        85  POPC      C316          -27.6315040652      -12.9851759969        3.1824088577  MEMB      33              0.0000000000
      5292        85  POPC      H16X          -27.6883848942      -12.1528041448        2.4510163886  MEMB      33              0.0000000000
      5293        85  POPC      H16Y          -28.2050249821      -12.6812018016        4.0841549224  MEMB      33              0.0000000000
      5294        85  POPC      H16Z          -28.1124887808      -13.8728827485        2.7338440797  MEMB      33              0.0000000000
      5295        86  POPC      N             -19.1155497601      -23.4406336059       20.3719843482  MEMB      34              0.0000000000
      5296        86  POPC      C12           -20.3355867033      -22.7582558843       19.7914533636  MEMB      34              0.0000000000
      5297        86  POPC      H12A          -20.5043270051      -21.8391145939       20.3178357375  MEMB      34              0.0000000000
      5298        86  POPC      H12B          -21.2112603186      -23.3933363265       19.9824336549  MEMB      34              0.0000000000
      5299        86  POPC      C13           -19.3468009616      -23.6997318080       21.8229615483  MEMB      34              0.0000000000
      5300        86  POPC      H13A          -18.5594408155      -24.3319203324       22.2253193971  MEMB      34              0.0000000000
      5301        86  POPC      H13B          -19.3455621988      -22.7978035404       22.4273281797  MEMB      34              0.0000000000
      5302        86  POPC      H13C          -20.2845055137      -24.2171355632       21.9764580365  MEMB      34              0.0000000000
      5303        86  POPC      C14           -18.9775575198      -24.7631906589       19.6810522997  MEMB      34              0.0000000000
      5304        86  POPC      H14A          -19.9519354105      -25.2604135493       19.6480879813  MEMB      34              0.0000000000
      5305        86  POPC      H14B          -18.7440500258      -24.6258879336       18.6220315328  MEMB      34              0.0000000000
      5306        86  POPC      H14C          -18.2405055201      -25.4064631841       20.1280942267  MEMB      34              0.0000000000
      5307        86  POPC      C15           -17.8748135266      -22.6310081268       20.1738569670  MEMB      34              0.0000000000
      5308        86  POPC      H15A          -17.9220181924      -21.6704361300       20.6770662449  MEMB      34              0.0000000000
      5309        86  POPC      H15B          -17.7020042916      -22.4767890468       19.1160643348  MEMB      34              0.0000000000
      5310        86  POPC      H15C          -17.0178723499      -23.1514746480       20.5820650725  MEMB      34              0.0000000000
      5311        86  POPC      C11           -20.3499015787      -22.5596704893       18.2623876291  MEMB      34              0.0000000000
      5312        86  POPC      H11A          -19.3480749959      -22.2476591037       17.8980383440  MEMB      34              0.0000000000
      5313        86  POPC      H11B          -21.0580513921      -21.7439213178       17.9820003864  MEMB      34              0.0000000000
      5314        86  POPC      P             -22.2813909483      -24.1282657570       17.5928213736  MEMB      34              0.0000000000
      5315        86  POPC      O13           -22.8786321923      -23.0345533282       16.7930241515  MEMB      34              0.0000000000
      5316        86  POPC      O14           -22.6903229323      -24.2390916101       19.0170771121  MEMB      34              0.0000000000
      5317        86  POPC      O12           -20.7174333315      -23.7890819140       17.6335718185  MEMB      34              0.0000000000
      5318        86  POPC      O11           -22.2682916614      -25.5390901932       16.8581793132  MEMB      34              0.0000000000
      5319        86  POPC      C1            -21.7009370401      -26.6609804733       17.5573619463  MEMB      34              0.0000000000
      5320        86  POPC      HA            -22.5263172628      -27.2526212629       18.0070868972  MEMB      34              0.0000000000
      5321        86  POPC      HB            -21.0362229942      -26.3538002698       18.3984896156  MEMB      34              0.0000000000
      5322        86  POPC      C2            -20.8431195942      -27.6033944511       16.6472797481  MEMB      34              0.0000000000
      5323        86  POPC      HS            -20.1204216242      -28.1426899129       17.3029296440  MEMB      34              0.0000000000
      5324        86  POPC      O21           -20.1374506067      -26.8840033518       15.6228419786  MEMB      34              0.0000000000
      5325        86  POPC      C21           -19.2170353445      -26.0491734528       16.0497643455  MEMB      34              0.0000000000
      5326        86  POPC      O22           -18.7065030868      -26.0704867597       17.1590400763  MEMB      34              0.0000000000
      5327        86  POPC      C22           -18.7983106810      -25.1585729774       14.8769906883  MEMB      34              0.0000000000
      5328        86  POPC      H2R           -19.7213662164      -24.8303228827       14.3524392288  MEMB      34              0.0000000000
      5329        86  POPC      H2S           -18.2061419740      -25.7892998280       14.1823894122  MEMB      34              0.0000000000
      5330        86  POPC      C3            -21.7143571543      -28.7007265891       15.9660742721  MEMB      34              0.0000000000
      5331        86  POPC      HX            -22.1029653232      -29.3742010994       16.7619231166  MEMB      34              0.0000000000
      5332        86  POPC      HY            -21.0903600493      -29.3174797673       15.2851534829  MEMB      34              0.0000000000
      5333        86  POPC      O31           -22.8388273172      -28.1337659984       15.2868298382  MEMB      34              0.0000000000
      5334        86  POPC      C31           -22.5684995616      -27.4632468730       14.1783240369  MEMB      34              0.0000000000
      5335        86  POPC      O32           -21.6150584586      -27.6625000859       13.4343670330  MEMB      34              0.0000000000
      5336        86  POPC      C32           -23.7315685239      -26.4983555510       13.9329377748  MEMB      34              0.0000000000
      5337        86  POPC      H2X           -24.3545985345      -26.4664602225       14.8567656311  MEMB      34              0.0000000000
      5338        86  POPC      H2Y           -24.3500163531      -26.8980994425       13.1065900187  MEMB      34              0.0000000000
      5339        86  POPC      C23           -17.9703305162      -23.9235183428       15.3050738684  MEMB      34              0.0000000000
      5340        86  POPC      H3R           -17.2347432988      -24.2105382732       16.0943737769  MEMB      34              0.0000000000
      5341        86  POPC      H3S           -18.6637166868      -23.1672121408       15.7355536745  MEMB      34              0.0000000000
      5342        86  POPC      C24           -17.1513630202      -23.3125877505       14.1528337825  MEMB      34              0.0000000000
      5343        86  POPC      H4R           -16.3724415268      -24.0542120932       13.8580978387  MEMB      34              0.0000000000
      5344        86  POPC      H4S           -16.6034577663      -22.4188008296       14.5297821324  MEMB      34              0.0000000000
      5345        86  POPC      C25           -17.9525020860      -22.9187421225       12.8960141210  MEMB      34              0.0000000000
      5346        86  POPC      H5R           -18.6002737452      -22.0454047565       13.1262351326  MEMB      34              0.0000000000
      5347        86  POPC      H5S           -18.6141484093      -23.7619240125       12.5960916680  MEMB      34              0.0000000000
      5348        86  POPC      C26           -17.0159860159      -22.6081509691       11.7162943503  MEMB      34              0.0000000000
      5349        86  POPC      H6R           -16.4654312485      -23.5474439791       11.4756397532  MEMB      34              0.0000000000
      5350        86  POPC      H6S           -16.2617373064      -21.8507094263       12.0283290448  MEMB      34              0.0000000000
      5351        86  POPC      C27           -17.6951365317      -22.1121984218       10.4237797016  MEMB      34              0.0000000000
      5352        86  POPC      H7R           -17.8740047469      -21.0171358519       10.5004589085  MEMB      34              0.0000000000
      5353        86  POPC      H7S           -18.6790631853      -22.6054636087       10.2977636702  MEMB      34              0.0000000000
      5354        86  POPC      C28           -16.8256130562      -22.4516425741        9.1917827220  MEMB      34              0.0000000000
      5355        86  POPC      H8R           -17.0056012780      -23.5197129693        8.9345577055  MEMB      34              0.0000000000
      5356        86  POPC      H8S           -15.7694451283      -22.3969931708        9.5434490952  MEMB      34              0.0000000000
      5357        86  POPC      C29           -16.9298783812      -21.6017800449        7.9498642522  MEMB      34              0.0000000000
      5358        86  POPC      H91           -15.9512410590      -21.2568412583        7.5822738664  MEMB      34              0.0000000000
      5359        86  POPC      C210          -18.0133257064      -21.1965759045        7.2618060026  MEMB      34              0.0000000000
      5360        86  POPC      H101          -17.8325541564      -20.5839856641        6.3724064526  MEMB      34              0.0000000000
      5361        86  POPC      C211          -19.4795079699      -21.4529127542        7.5019882626  MEMB      34              0.0000000000
      5362        86  POPC      H11R          -19.9586002057      -20.4958988178        7.7950644752  MEMB      34              0.0000000000
      5363        86  POPC      H11S          -19.6456786234      -22.1539515565        8.3459198444  MEMB      34              0.0000000000
      5364        86  POPC      C212          -20.2140772781      -21.9899914172        6.2463971175  MEMB      34              0.0000000000
      5365        86  POPC      H12R          -20.1058865331      -23.0846660761        6.2480689471  MEMB      34              0.0000000000
      5366        86  POPC      H12S          -19.7467000156      -21.6186088072        5.3083610592  MEMB      34              0.0000000000
      5367        86  POPC      C213          -21.7076315529      -21.6190739468        6.2200114131  MEMB      34              0.0000000000
      5368        86  POPC      H13R          -21.7639067559      -20.5105398468        6.2081091779  MEMB      34              0.0000000000
      5369        86  POPC      H13S          -22.1841652634      -21.9698095351        7.1580599817  MEMB      34              0.0000000000
      5370        86  POPC      C214          -22.5399427698      -22.1310960784        5.0254909793  MEMB      34              0.0000000000
      5371        86  POPC      H14R          -22.1645184585      -21.6550809979        4.0931924373  MEMB      34              0.0000000000
      5372        86  POPC      H14S          -23.5919582063      -21.7985651733        5.1784632315  MEMB      34              0.0000000000
      5373        86  POPC      C215          -22.5365563547      -23.6537978007        4.8367332520  MEMB      34              0.0000000000
      5374        86  POPC      H15R          -22.7349409425      -24.1532385966        5.8129069333  MEMB      34              0.0000000000
      5375        86  POPC      H15S          -21.5228184306      -23.9535122016        4.5158080727  MEMB      34              0.0000000000
      5376        86  POPC      C216          -23.5536159946      -24.1904370918        3.8114980977  MEMB      34              0.0000000000
      5377        86  POPC      H16R          -24.5623360077      -24.1253756964        4.2589807833  MEMB      34              0.0000000000
      5378        86  POPC      H16S          -23.3484101274      -25.2697471777        3.6295221090  MEMB      34              0.0000000000
      5379        86  POPC      C217          -23.6288130004      -23.4639876703        2.4635847653  MEMB      34              0.0000000000
      5380        86  POPC      H17R          -22.6407675319      -23.5124323204        1.9562436243  MEMB      34              0.0000000000
      5381        86  POPC      H17S          -23.8688431021      -22.3907210188        2.6357653550  MEMB      34              0.0000000000
      5382        86  POPC      C218          -24.7102419825      -24.0659834333        1.5576524075  MEMB      34              0.0000000000
      5383        86  POPC      H18R          -25.6994504345      -24.0419644723        2.0655329156  MEMB      34              0.0000000000
      5384        86  POPC      H18S          -24.4729921668      -25.1227118161        1.3107553221  MEMB      34              0.0000000000
      5385        86  POPC      H18T          -24.7939089690      -23.4997417415        0.6094245397  MEMB      34              0.0000000000
      5386        86  POPC      C33           -23.2731536312      -25.0515474883       13.6519621360  MEMB      34              0.0000000000
      5387        86  POPC      H3X           -22.6822062463      -24.6574596403       14.5106861788  MEMB      34              0.0000000000
      5388        86  POPC      H3Y           -24.1849528369      -24.4143134102       13.5754466153  MEMB      34              0.0000000000
      5389        86  POPC      C34           -22.4568113284      -24.9216914061       12.3678430733  MEMB      34              0.0000000000
      5390        86  POPC      H4X           -22.9681874939      -25.4942403500       11.5643174823  MEMB      34              0.0000000000
      5391        86  POPC      H4Y           -21.4482356278      -25.3723913039       12.5181812256  MEMB      34              0.0000000000
      5392        86  POPC      C35           -22.2825232683      -23.4651698759       11.9373395704  MEMB      34              0.0000000000
      5393        86  POPC      H5X           -21.8366609381      -22.8960834699       12.7851697939  MEMB      34              0.0000000000
      5394        86  POPC      H5Y           -23.2801325947      -23.0189606781       11.7353397750  MEMB      34              0.0000000000
      5395        86  POPC      C36           -21.3777706765      -23.3222193133       10.7061015504  MEMB      34              0.0000000000
      5396        86  POPC      H6X           -20.3569877635      -23.6601327765       10.9768434527  MEMB      34              0.0000000000
      5397        86  POPC      H6Y           -21.3168206066      -22.2368437982       10.4610684895  MEMB      34              0.0000000000
      5398        86  POPC      C37           -21.8610260499      -24.0846741438        9.4554839554  MEMB      34              0.0000000000
      5399        86  POPC      H7X           -21.7492211431      -23.4068808386        8.5829663492  MEMB      34              0.0000000000
      5400        86  POPC      H7Y           -22.9448864440      -24.2968995976        9.5568147369  MEMB      34              0.0000000000
      5401        86  POPC      C38           -21.0948589635      -25.3817405829        9.1031591028  MEMB      34              0.0000000000
      5402        86  POPC      H8X           -21.6065886951      -25.8406171580        8.2273484363  MEMB      34              0.0000000000
      5403        86  POPC      H8Y           -21.1528681039      -26.1022451215        9.9480325805  MEMB      34              0.0000000000
      5404        86  POPC      C39           -19.6208620084      -25.1307864080        8.7284292303  MEMB      34              0.0000000000
      5405        86  POPC      H9X           -19.0767234872      -24.8445845987        9.6578091907  MEMB      34              0.0000000000
      5406        86  POPC      H9Y           -19.5649915466      -24.2649742828        8.0374140530  MEMB      34              0.0000000000
      5407        86  POPC      C310          -18.8605356165      -26.3075986903        8.0770003657  MEMB      34              0.0000000000
      5408        86  POPC      H10X          -18.8440687198      -27.1564879113        8.7952969608  MEMB      34              0.0000000000
      5409        86  POPC      H10Y          -17.8064289731      -25.9709783225        7.9343017765  MEMB      34              0.0000000000
      5410        86  POPC      C311          -19.3803465193      -26.8111608564        6.7103065690  MEMB      34              0.0000000000
      5411        86  POPC      H11X          -20.3713183618      -27.2944082521        6.8513943041  MEMB      34              0.0000000000
      5412        86  POPC      H11Y          -18.6784279270      -27.5908633096        6.3378844360  MEMB      34              0.0000000000
      5413        86  POPC      C312          -19.5040443118      -25.7239643362        5.6260308639  MEMB      34              0.0000000000
      5414        86  POPC      H12X          -18.5185228287      -25.2313974962        5.4788651135  MEMB      34              0.0000000000
      5415        86  POPC      H12Y          -20.2278837238      -24.9801923961        6.0046733309  MEMB      34              0.0000000000
      5416        86  POPC      C313          -20.0494600836      -26.2318922801        4.2786617573  MEMB      34              0.0000000000
      5417        86  POPC      H13X          -21.1549005516      -26.3309122828        4.3651739079  MEMB      34              0.0000000000
      5418        86  POPC      H13Y          -19.6450458053      -27.2429802748        4.1166817768  MEMB      34              0.0000000000
      5419        86  POPC      C314          -19.7126418705      -25.3660746565        3.0447449886  MEMB      34              0.0000000000
      5420        86  POPC      H14X          -18.6234705709      -25.4265823073        2.8318101449  MEMB      34              0.0000000000
      5421        86  POPC      H14Y          -19.9436099422      -24.2994650874        3.2547698553  MEMB      34              0.0000000000
      5422        86  POPC      C315          -20.5092046177      -25.7950354111        1.7976547845  MEMB      34              0.0000000000
      5423        86  POPC      H15X          -21.5927509929      -25.7907205344        2.0576334263  MEMB      34              0.0000000000
      5424        86  POPC      H15Y          -20.2417917725      -26.8438683955        1.5384995207  MEMB      34              0.0000000000
      5425        86  POPC      C316          -20.2998501844      -24.9034420218        0.5679993683  MEMB      34              0.0000000000
      5426        86  POPC      H16X          -19.2531728501      -24.9751841889        0.2041173326  MEMB      34              0.0000000000
      5427        86  POPC      H16Y          -20.5223440505      -23.8420523194        0.8074641327  MEMB      34              0.0000000000
      5428        86  POPC      H16Z          -20.9747632730      -25.2196701548       -0.2586074595  MEMB      34              0.0000000000
      5429        87  POPC      N              14.4333512920       28.3672677603       18.3498714947  MEMB      35              0.0000000000
      5430        87  POPC      C12            15.9450195077       28.2863029994       18.1020418272  MEMB      35              0.0000000000
      5431        87  POPC      H12A           16.1487092754       28.1847241366       17.0487721436  MEMB      35              0.0000000000
      5432        87  POPC      H12B           16.3118651252       27.3825387602       18.5951721743  MEMB      35              0.0000000000
      5433        87  POPC      C13            14.2337392128       28.7897850934       19.7726445153  MEMB      35              0.0000000000
      5434        87  POPC      H13A           13.2033041850       28.8962085008       20.0633638521  MEMB      35              0.0000000000
      5435        87  POPC      H13B           14.6844523512       28.0203201351       20.4138721017  MEMB      35              0.0000000000
      5436        87  POPC      H13C           14.8032009961       29.6923495262       19.9829180571  MEMB      35              0.0000000000
      5437        87  POPC      C14            13.7810705498       29.3379474678       17.4201167356  MEMB      35              0.0000000000
      5438        87  POPC      H14A           14.1960537595       30.3339020095       17.5628403963  MEMB      35              0.0000000000
      5439        87  POPC      H14B           13.9616356988       29.0657744720       16.3857129665  MEMB      35              0.0000000000
      5440        87  POPC      H14C           12.7096908386       29.3589721847       17.5803700416  MEMB      35              0.0000000000
      5441        87  POPC      C15            13.8496031058       26.9789380562       18.2174327164  MEMB      35              0.0000000000
      5442        87  POPC      H15A           12.7773564206       26.9751921371       18.3827840882  MEMB      35              0.0000000000
      5443        87  POPC      H15B           14.2973871654       26.3084019126       18.9627590046  MEMB      35              0.0000000000
      5444        87  POPC      H15C           14.0258950917       26.5384915028       17.2451410490  MEMB      35              0.0000000000
      5445        87  POPC      C11            16.8706700808       29.3877560148       18.6907482715  MEMB      35              0.0000000000
      5446        87  POPC      H11A           16.4673465111       30.3930742288       18.4364635848  MEMB      35              0.0000000000
      5447        87  POPC      H11B           17.8646461987       29.3233153402       18.1848995395  MEMB      35              0.0000000000
      5448        87  POPC      P              17.5903022105       27.9306508771       20.7693630166  MEMB      35              0.0000000000
      5449        87  POPC      O13            16.5722752528       26.8802387546       20.5219254033  MEMB      35              0.0000000000
      5450        87  POPC      O14            18.0065871219       28.1903578980       22.1815963807  MEMB      35              0.0000000000
      5451        87  POPC      O12            17.0234997701       29.2657061228       20.1117703017  MEMB      35              0.0000000000
      5452        87  POPC      O11            18.8794820813       27.6370784711       19.8792693959  MEMB      35              0.0000000000
      5453        87  POPC      C1             19.9385453155       28.6227055810       19.7703224221  MEMB      35              0.0000000000
      5454        87  POPC      HA             20.5231311350       28.6407433859       20.7218724058  MEMB      35              0.0000000000
      5455        87  POPC      HB             19.5523584865       29.6589831759       19.6039014634  MEMB      35              0.0000000000
      5456        87  POPC      C2             20.9733140497       28.3335851819       18.6114314131  MEMB      35              0.0000000000
      5457        87  POPC      HS             21.9680059594       28.6568620624       18.9927664701  MEMB      35              0.0000000000
      5458        87  POPC      O21            20.6406013777       29.1228036515       17.4464710909  MEMB      35              0.0000000000
      5459        87  POPC      C21            21.3765295008       29.0534860300       16.3318136330  MEMB      35              0.0000000000
      5460        87  POPC      O22            22.3831802462       28.3784012184       16.2015509188  MEMB      35              0.0000000000
      5461        87  POPC      C22            20.8392517378       30.0217284587       15.2932723992  MEMB      35              0.0000000000
      5462        87  POPC      H2R            21.4040723911       30.9716771928       15.4169333127  MEMB      35              0.0000000000
      5463        87  POPC      H2S            19.7766944217       30.2462351149       15.5207688430  MEMB      35              0.0000000000
      5464        87  POPC      C3             21.0154267899       26.8103682881       18.2785181164  MEMB      35              0.0000000000
      5465        87  POPC      HX             21.0472002164       26.2958684703       19.2669594319  MEMB      35              0.0000000000
      5466        87  POPC      HY             21.9530710971       26.5479770596       17.7412771392  MEMB      35              0.0000000000
      5467        87  POPC      O31            19.8293987064       26.3881505143       17.5788095086  MEMB      35              0.0000000000
      5468        87  POPC      C31            19.9202086247       26.1553502211       16.2784963743  MEMB      35              0.0000000000
      5469        87  POPC      O32            20.9517544242       26.0122443767       15.6542479199  MEMB      35              0.0000000000
      5470        87  POPC      C32            18.5080356244       26.1117254128       15.6898554530  MEMB      35              0.0000000000
      5471        87  POPC      H2X            17.8172676603       26.5446133476       16.4432775681  MEMB      35              0.0000000000
      5472        87  POPC      H2Y            18.2610101377       25.0436703639       15.5670034134  MEMB      35              0.0000000000
      5473        87  POPC      C23            21.0012065981       29.5098534436       13.8397024310  MEMB      35              0.0000000000
      5474        87  POPC      H3R            20.3165469488       28.6645114353       13.6292141308  MEMB      35              0.0000000000
      5475        87  POPC      H3S            22.0264237838       29.1169147677       13.6706748592  MEMB      35              0.0000000000
      5476        87  POPC      C24            20.7208064570       30.6563116891       12.8615249170  MEMB      35              0.0000000000
      5477        87  POPC      H4R            21.3991312276       31.4980976740       13.1244712245  MEMB      35              0.0000000000
      5478        87  POPC      H4S            19.6898387807       31.0288424825       13.0440909446  MEMB      35              0.0000000000
      5479        87  POPC      C25            20.9027568387       30.3219460967       11.3755401852  MEMB      35              0.0000000000
      5480        87  POPC      H5R            21.9371139568       29.9645391237       11.1758800533  MEMB      35              0.0000000000
      5481        87  POPC      H5S            20.7781105509       31.2817157665       10.8177681819  MEMB      35              0.0000000000
      5482        87  POPC      C26            19.8828652760       29.3083099946       10.8317226820  MEMB      35              0.0000000000
      5483        87  POPC      H6R            18.9687272729       29.3520760443       11.4667107175  MEMB      35              0.0000000000
      5484        87  POPC      H6S            20.2889742301       28.2755977143       10.9015222378  MEMB      35              0.0000000000
      5485        87  POPC      C27            19.4820466457       29.6345871091        9.3877096280  MEMB      35              0.0000000000
      5486        87  POPC      H7R            20.3701455069       29.5600910575        8.7285092329  MEMB      35              0.0000000000
      5487        87  POPC      H7S            19.1539316589       30.6960432554        9.3677303280  MEMB      35              0.0000000000
      5488        87  POPC      C28            18.2979190700       28.8097456299        8.8497415395  MEMB      35              0.0000000000
      5489        87  POPC      H8R            17.8836155273       29.3384426015        7.9635116338  MEMB      35              0.0000000000
      5490        87  POPC      H8S            17.4947682252       28.8160800177        9.6200697168  MEMB      35              0.0000000000
      5491        87  POPC      C29            18.6146644225       27.4010275983        8.4404043949  MEMB      35              0.0000000000
      5492        87  POPC      H91            18.1616201022       26.6255830750        9.0743363116  MEMB      35              0.0000000000
      5493        87  POPC      C210           19.3837935679       27.0350408042        7.3999386463  MEMB      35              0.0000000000
      5494        87  POPC      H101           19.5265702334       25.9688159969        7.1964684543  MEMB      35              0.0000000000
      5495        87  POPC      C211           20.0952366508       27.9330122430        6.4270793103  MEMB      35              0.0000000000
      5496        87  POPC      H11R           21.1918465040       27.7556327894        6.4894110085  MEMB      35              0.0000000000
      5497        87  POPC      H11S           19.9328661875       28.9941308009        6.7218312784  MEMB      35              0.0000000000
      5498        87  POPC      C212           19.6667069363       27.8777163854        4.9428817930  MEMB      35              0.0000000000
      5499        87  POPC      H12R           20.3724678535       28.5123362588        4.3664632740  MEMB      35              0.0000000000
      5500        87  POPC      H12S           18.6732302498       28.3672195779        4.8659956103  MEMB      35              0.0000000000
      5501        87  POPC      C213           19.6217478721       26.5233246451        4.2072176787  MEMB      35              0.0000000000
      5502        87  POPC      H13R           20.6034257410       26.0046688289        4.2453227163  MEMB      35              0.0000000000
      5503        87  POPC      H13S           19.4311394620       26.7691891994        3.1338296265  MEMB      35              0.0000000000
      5504        87  POPC      C214           18.4895991707       25.6082466005        4.6940586284  MEMB      35              0.0000000000
      5505        87  POPC      H14R           17.7274521711       26.2561904068        5.1886289282  MEMB      35              0.0000000000
      5506        87  POPC      H14S           18.8497038976       24.9304475280        5.4866251563  MEMB      35              0.0000000000
      5507        87  POPC      C215           17.7364442203       24.8193502774        3.6112324438  MEMB      35              0.0000000000
      5508        87  POPC      H15R           17.0308183560       25.5414583044        3.1506296010  MEMB      35              0.0000000000
      5509        87  POPC      H15S           17.1214128969       24.0398292072        4.1126104678  MEMB      35              0.0000000000
      5510        87  POPC      C216           18.5377173508       24.1333569416        2.4949604614  MEMB      35              0.0000000000
      5511        87  POPC      H16R           18.9443063883       23.1713419595        2.8810464357  MEMB      35              0.0000000000
      5512        87  POPC      H16S           19.3994052820       24.7544992629        2.1700661112  MEMB      35              0.0000000000
      5513        87  POPC      C217           17.6495803315       23.8565333038        1.2657706049  MEMB      35              0.0000000000
      5514        87  POPC      H17R           16.7645749094       23.2601518391        1.5857410858  MEMB      35              0.0000000000
      5515        87  POPC      H17S           18.2283580124       23.2375048433        0.5466642701  MEMB      35              0.0000000000
      5516        87  POPC      C218           17.1749037156       25.1166887981        0.5319438059  MEMB      35              0.0000000000
      5517        87  POPC      H18R           18.0534754948       25.6803029000        0.1675219994  MEMB      35              0.0000000000
      5518        87  POPC      H18S           16.6037970715       25.7984459455        1.1939424024  MEMB      35              0.0000000000
      5519        87  POPC      H18T           16.5163077663       24.8562191563       -0.3245447749  MEMB      35              0.0000000000
      5520        87  POPC      C33            18.2944064034       26.8741419919       14.3483545227  MEMB      35              0.0000000000
      5521        87  POPC      H3X            18.9161583371       26.4292490475       13.5388741773  MEMB      35              0.0000000000
      5522        87  POPC      H3Y            18.6005695795       27.9348167723       14.4860416840  MEMB      35              0.0000000000
      5523        87  POPC      C34            16.8075609115       26.8573779131       13.9455600062  MEMB      35              0.0000000000
      5524        87  POPC      H4X            16.2172003731       27.1866644883       14.8311504482  MEMB      35              0.0000000000
      5525        87  POPC      H4Y            16.5169818521       25.8096910545       13.7086194975  MEMB      35              0.0000000000
      5526        87  POPC      C35            16.3819119475       27.7242534485       12.7440551253  MEMB      35              0.0000000000
      5527        87  POPC      H5X            16.7577583533       27.2641028063       11.8032427530  MEMB      35              0.0000000000
      5528        87  POPC      H5Y            16.8140543848       28.7457958886       12.8213665811  MEMB      35              0.0000000000
      5529        87  POPC      C36            14.8446220641       27.8505721843       12.6779722601  MEMB      35              0.0000000000
      5530        87  POPC      H6X            14.4887090321       28.2842139300       13.6392048156  MEMB      35              0.0000000000
      5531        87  POPC      H6Y            14.3898106124       26.8376748516       12.5939944472  MEMB      35              0.0000000000
      5532        87  POPC      C37            14.2986660773       28.7344700504       11.5416997211  MEMB      35              0.0000000000
      5533        87  POPC      H7X            14.8122753460       29.7195490631       11.5622447636  MEMB      35              0.0000000000
      5534        87  POPC      H7Y            13.2130855518       28.9102132300       11.7284761991  MEMB      35              0.0000000000
      5535        87  POPC      C38            14.4329283248       28.0965223818       10.1545254382  MEMB      35              0.0000000000
      5536        87  POPC      H8X            13.8703991990       27.1358253185       10.1390211527  MEMB      35              0.0000000000
      5537        87  POPC      H8Y            15.5036626298       27.8554846324        9.9771548565  MEMB      35              0.0000000000
      5538        87  POPC      C39            13.9274611756       28.9878880455        9.0093053083  MEMB      35              0.0000000000
      5539        87  POPC      H9X            14.4534243938       29.9611708078        9.0643358417  MEMB      35              0.0000000000
      5540        87  POPC      H9Y            12.8404202779       29.1913800973        9.1243522445  MEMB      35              0.0000000000
      5541        87  POPC      C310           14.1985073539       28.3265793554        7.6518932753  MEMB      35              0.0000000000
      5542        87  POPC      H10X           13.3823742338       27.6065839162        7.4218834784  MEMB      35              0.0000000000
      5543        87  POPC      H10Y           15.1371522903       27.7317894708        7.7569822936  MEMB      35              0.0000000000
      5544        87  POPC      C311           14.4241940849       29.2833645800        6.4681515353  MEMB      35              0.0000000000
      5545        87  POPC      H11X           15.2368246492       29.9962382211        6.7357869444  MEMB      35              0.0000000000
      5546        87  POPC      H11Y           13.5065907320       29.8689058122        6.2447852313  MEMB      35              0.0000000000
      5547        87  POPC      C312           14.8637446548       28.4708542886        5.2404040136  MEMB      35              0.0000000000
      5548        87  POPC      H12X           13.9871985927       27.9320171383        4.8211754393  MEMB      35              0.0000000000
      5549        87  POPC      H12Y           15.5801970039       27.6945963718        5.6006626346  MEMB      35              0.0000000000
      5550        87  POPC      C313           15.5919248177       29.2434193673        4.1301396491  MEMB      35              0.0000000000
      5551        87  POPC      H13X           16.3568409196       29.9123408859        4.5838206644  MEMB      35              0.0000000000
      5552        87  POPC      H13Y           14.8694952413       29.8684725129        3.5626637133  MEMB      35              0.0000000000
      5553        87  POPC      C314           16.2874572116       28.2437701893        3.1905159758  MEMB      35              0.0000000000
      5554        87  POPC      H14X           15.5325232272       27.5134578560        2.8231853981  MEMB      35              0.0000000000
      5555        87  POPC      H14Y           17.0244289458       27.6704348720        3.7825197832  MEMB      35              0.0000000000
      5556        87  POPC      C315           17.0120269673       28.8334074686        1.9772183517  MEMB      35              0.0000000000
      5557        87  POPC      H15X           16.2515444160       29.3604345709        1.3655411810  MEMB      35              0.0000000000
      5558        87  POPC      H15Y           17.3940463922       27.9852265446        1.3618553910  MEMB      35              0.0000000000
      5559        87  POPC      C316           18.1918894956       29.7555349722        2.2945038030  MEMB      35              0.0000000000
      5560        87  POPC      H16X           17.8779328221       30.6250517528        2.9092866856  MEMB      35              0.0000000000
      5561        87  POPC      H16Y           18.6490936555       30.1326430838        1.3551262545  MEMB      35              0.0000000000
      5562        87  POPC      H16Z           18.9801946497       29.2043513583        2.8389065047  MEMB      35              0.0000000000
      5563        88  POPC      N             -21.3068116268       19.8353112273       18.4122049296  MEMB      36              0.0000000000
      5564        88  POPC      C12           -21.9247609874       20.5612700157       19.6135017051  MEMB      36              0.0000000000
      5565        88  POPC      H12A          -21.5270809987       20.1202791565       20.5239747400  MEMB      36              0.0000000000
      5566        88  POPC      H12B          -22.9954521644       20.4070911403       19.6394760637  MEMB      36              0.0000000000
      5567        88  POPC      C13           -19.8376187448       20.1463066117       18.4013751460  MEMB      36              0.0000000000
      5568        88  POPC      H13A          -19.3170623809       19.7350032371       17.5464034026  MEMB      36              0.0000000000
      5569        88  POPC      H13B          -19.6888097749       21.2275441822       18.4384676221  MEMB      36              0.0000000000
      5570        88  POPC      H13C          -19.3521987446       19.7765623825       19.3014956666  MEMB      36              0.0000000000
      5571        88  POPC      C14           -21.5058244955       18.3536626486       18.5511307832  MEMB      36              0.0000000000
      5572        88  POPC      H14A          -20.8292474896       17.9166741109       19.2910767132  MEMB      36              0.0000000000
      5573        88  POPC      H14B          -22.5277650381       18.1105246049       18.8303032045  MEMB      36              0.0000000000
      5574        88  POPC      H14C          -21.2739146332       17.8431015416       17.6231092773  MEMB      36              0.0000000000
      5575        88  POPC      C15           -21.9120903373       20.3342502163       17.1311351558  MEMB      36              0.0000000000
      5576        88  POPC      H15A          -22.9728016750       20.1241965975       17.0668334785  MEMB      36              0.0000000000
      5577        88  POPC      H15B          -21.4231872699       19.9021894745       16.2633466073  MEMB      36              0.0000000000
      5578        88  POPC      H15C          -21.7321701156       21.4056169953       17.0662820629  MEMB      36              0.0000000000
      5579        88  POPC      C11           -21.6581776498       22.0837967418       19.7570564942  MEMB      36              0.0000000000
      5580        88  POPC      H11A          -22.5130530323       22.5410250230       20.3061938705  MEMB      36              0.0000000000
      5581        88  POPC      H11B          -21.6265493187       22.5477696131       18.7437271152  MEMB      36              0.0000000000
      5582        88  POPC      P             -19.6018907355       23.6174045077       20.3480490212  MEMB      36              0.0000000000
      5583        88  POPC      O13           -18.2002048248       23.3680787134       20.7392780919  MEMB      36              0.0000000000
      5584        88  POPC      O14           -20.2732399753       24.7876278588       20.9660877401  MEMB      36              0.0000000000
      5585        88  POPC      O12           -20.4654205469       22.2913862142       20.5171775772  MEMB      36              0.0000000000
      5586        88  POPC      O11           -19.6509216970       23.8137346893       18.7865088735  MEMB      36              0.0000000000
      5587        88  POPC      C1            -20.1189823100       25.0347471904       18.2379815464  MEMB      36              0.0000000000
      5588        88  POPC      HA            -19.4453158355       25.8621756508       18.5517897194  MEMB      36              0.0000000000
      5589        88  POPC      HB            -21.1448960879       25.2704003046       18.5910640847  MEMB      36              0.0000000000
      5590        88  POPC      C2            -20.0361489106       24.9420505393       16.6988273725  MEMB      36              0.0000000000
      5591        88  POPC      HS            -20.1722432969       25.9590136296       16.2707125917  MEMB      36              0.0000000000
      5592        88  POPC      O21           -21.0310987347       24.0475942032       16.1497705492  MEMB      36              0.0000000000
      5593        88  POPC      C21           -22.2889239915       24.4692853552       16.2255121040  MEMB      36              0.0000000000
      5594        88  POPC      O22           -22.6785883160       25.4624301102       16.8162711945  MEMB      36              0.0000000000
      5595        88  POPC      C22           -23.2016835483       23.4799496925       15.4859340666  MEMB      36              0.0000000000
      5596        88  POPC      H2R           -23.9809531819       23.1779370181       16.2142781643  MEMB      36              0.0000000000
      5597        88  POPC      H2S           -22.6105434486       22.5816405396       15.2189940895  MEMB      36              0.0000000000
      5598        88  POPC      C3            -18.5863009805       24.4726351185       16.3401450561  MEMB      36              0.0000000000
      5599        88  POPC      HX            -18.4686051854       23.4209195432       16.6831598464  MEMB      36              0.0000000000
      5600        88  POPC      HY            -17.8936222221       25.1118246941       16.9388763177  MEMB      36              0.0000000000
      5601        88  POPC      O31           -18.3135491816       24.5673740664       14.9329107457  MEMB      36              0.0000000000
      5602        88  POPC      C31           -17.0367055740       24.7418554538       14.5553644416  MEMB      36              0.0000000000
      5603        88  POPC      O32           -16.0858590338       24.8796996662       15.3031915152  MEMB      36              0.0000000000
      5604        88  POPC      C32           -16.9774796866       24.7511098516       13.0322455003  MEMB      36              0.0000000000
      5605        88  POPC      H2X           -17.2355555552       23.7246809109       12.6984452736  MEMB      36              0.0000000000
      5606        88  POPC      H2Y           -15.9327408383       24.9689198495       12.7306185432  MEMB      36              0.0000000000
      5607        88  POPC      C23           -23.8831111458       24.0436346762       14.2096376364  MEMB      36              0.0000000000
      5608        88  POPC      H3R           -24.4902714423       24.9498302304       14.4313435332  MEMB      36              0.0000000000
      5609        88  POPC      H3S           -24.5836836422       23.2560247058       13.8450758146  MEMB      36              0.0000000000
      5610        88  POPC      C24           -22.9023010119       24.3401632407       13.0584266075  MEMB      36              0.0000000000
      5611        88  POPC      H4R           -22.1685204492       23.5056438101       12.9789530511  MEMB      36              0.0000000000
      5612        88  POPC      H4S           -22.3338093379       25.2719499479       13.2744461807  MEMB      36              0.0000000000
      5613        88  POPC      C25           -23.6122812980       24.4683127009       11.6977079716  MEMB      36              0.0000000000
      5614        88  POPC      H5R           -24.3985665214       25.2516839817       11.7614805624  MEMB      36              0.0000000000
      5615        88  POPC      H5S           -24.1256963850       23.5024749716       11.4903113330  MEMB      36              0.0000000000
      5616        88  POPC      C26           -22.6726686285       24.7865772016       10.5183047919  MEMB      36              0.0000000000
      5617        88  POPC      H6R           -21.6930772078       24.2899217300       10.6748822747  MEMB      36              0.0000000000
      5618        88  POPC      H6S           -22.4965744493       25.8854352821       10.4881803027  MEMB      36              0.0000000000
      5619        88  POPC      C27           -23.2444465343       24.3176663056        9.1649873416  MEMB      36              0.0000000000
      5620        88  POPC      H7R           -24.3335688663       24.4886692318        9.2251806899  MEMB      36              0.0000000000
      5621        88  POPC      H7S           -23.1213038020       23.2180860743        9.0586502340  MEMB      36              0.0000000000
      5622        88  POPC      C28           -22.6318553273       25.0278817172        7.9325983520  MEMB      36              0.0000000000
      5623        88  POPC      H8R           -21.7754161371       24.4284929827        7.5712165604  MEMB      36              0.0000000000
      5624        88  POPC      H8S           -22.2015796312       25.9960009691        8.2758372472  MEMB      36              0.0000000000
      5625        88  POPC      C29           -23.5747412948       25.3270131574        6.7937721665  MEMB      36              0.0000000000
      5626        88  POPC      H91           -24.2146508640       26.1935348409        6.9782347778  MEMB      36              0.0000000000
      5627        88  POPC      C210          -23.7637878568       24.6725845377        5.6381108972  MEMB      36              0.0000000000
      5628        88  POPC      H101          -24.4949232134       25.0859423753        4.9231569097  MEMB      36              0.0000000000
      5629        88  POPC      C211          -23.0513136635       23.4367611522        5.1593230292  MEMB      36              0.0000000000
      5630        88  POPC      H11R          -23.8107091762       22.6328644926        5.0111277531  MEMB      36              0.0000000000
      5631        88  POPC      H11S          -22.3371403527       23.0465120283        5.9147058083  MEMB      36              0.0000000000
      5632        88  POPC      C212          -22.3141986383       23.6362678106        3.8235281133  MEMB      36              0.0000000000
      5633        88  POPC      H12R          -22.5182940494       24.6369278361        3.3907425070  MEMB      36              0.0000000000
      5634        88  POPC      H12S          -22.7372723005       22.8961339753        3.1018543401  MEMB      36              0.0000000000
      5635        88  POPC      C213          -20.7932178386       23.3850454827        3.8699849302  MEMB      36              0.0000000000
      5636        88  POPC      H13R          -20.4633506459       23.2494645420        2.8140040745  MEMB      36              0.0000000000
      5637        88  POPC      H13S          -20.5872603831       22.4343743994        4.4018460091  MEMB      36              0.0000000000
      5638        88  POPC      C214          -19.9287217294       24.5033840867        4.4788750657  MEMB      36              0.0000000000
      5639        88  POPC      H14R          -20.0992369223       24.5827026265        5.5732533653  MEMB      36              0.0000000000
      5640        88  POPC      H14S          -20.2449564883       25.4759763930        4.0456737955  MEMB      36              0.0000000000
      5641        88  POPC      C215          -18.4297058125       24.3020081011        4.1587751555  MEMB      36              0.0000000000
      5642        88  POPC      H15R          -17.9967777767       25.2806868713        3.8431863576  MEMB      36              0.0000000000
      5643        88  POPC      H15S          -18.3413333025       23.6163044573        3.2884765266  MEMB      36              0.0000000000
      5644        88  POPC      C216          -17.5945846684       23.7561252091        5.3327654958  MEMB      36              0.0000000000
      5645        88  POPC      H16R          -18.2709195798       23.5807037658        6.1992823131  MEMB      36              0.0000000000
      5646        88  POPC      H16S          -16.8697753260       24.5386532990        5.6466283221  MEMB      36              0.0000000000
      5647        88  POPC      C217          -16.8424790016       22.4368272271        5.0551965568  MEMB      36              0.0000000000
      5648        88  POPC      H17R          -17.5971820443       21.6465270038        4.8517474014  MEMB      36              0.0000000000
      5649        88  POPC      H17S          -16.3060901685       22.1468724204        5.9891668575  MEMB      36              0.0000000000
      5650        88  POPC      C218          -15.8358207659       22.4300610937        3.8958488384  MEMB      36              0.0000000000
      5651        88  POPC      H18R          -15.4208366964       21.4087359483        3.7513817204  MEMB      36              0.0000000000
      5652        88  POPC      H18S          -14.9781854525       23.0955343846        4.1015088823  MEMB      36              0.0000000000
      5653        88  POPC      H18T          -16.3029284291       22.7528955342        2.9436587905  MEMB      36              0.0000000000
      5654        88  POPC      C33           -17.9522975926       25.7991674550       12.4443294430  MEMB      36              0.0000000000
      5655        88  POPC      H3X           -17.5652433130       26.8223006941       12.6520498478  MEMB      36              0.0000000000
      5656        88  POPC      H3Y           -18.9526795316       25.7100743044       12.9309148800  MEMB      36              0.0000000000
      5657        88  POPC      C34           -18.2035441123       25.6497551354       10.9413742536  MEMB      36              0.0000000000
      5658        88  POPC      H4X           -17.2705647273       25.8263520889       10.3712847088  MEMB      36              0.0000000000
      5659        88  POPC      H4Y           -18.9401068384       26.4315676486       10.6442327678  MEMB      36              0.0000000000
      5660        88  POPC      C35           -18.7552258712       24.2767594993       10.5483167893  MEMB      36              0.0000000000
      5661        88  POPC      H5X           -19.6139575974       24.0245955401       11.2099497813  MEMB      36              0.0000000000
      5662        88  POPC      H5Y           -17.9756090704       23.4981235543       10.6919754819  MEMB      36              0.0000000000
      5663        88  POPC      C36           -19.2066089030       24.2653643604        9.0909040475  MEMB      36              0.0000000000
      5664        88  POPC      H6X           -18.3439998829       24.4948360341        8.4275887543  MEMB      36              0.0000000000
      5665        88  POPC      H6Y           -19.9544000789       25.0805638009        8.9492034035  MEMB      36              0.0000000000
      5666        88  POPC      C37           -19.8543722230       22.9463374710        8.6570460362  MEMB      36              0.0000000000
      5667        88  POPC      H7X           -20.1834179269       23.1082450995        7.6078729887  MEMB      36              0.0000000000
      5668        88  POPC      H7Y           -20.7620322874       22.7496990875        9.2693352352  MEMB      36              0.0000000000
      5669        88  POPC      C38           -18.9454987189       21.7108014041        8.7019285083  MEMB      36              0.0000000000
      5670        88  POPC      H8X           -18.6749874147       21.4755075754        9.7556003431  MEMB      36              0.0000000000
      5671        88  POPC      H8Y           -18.0065480331       21.9342914505        8.1481319986  MEMB      36              0.0000000000
      5672        88  POPC      C39           -19.6169407013       20.4858168639        8.0595927309  MEMB      36              0.0000000000
      5673        88  POPC      H9X           -20.5039358975       20.1976141891        8.6692831466  MEMB      36              0.0000000000
      5674        88  POPC      H9Y           -18.9022962471       19.6324158396        8.0719360748  MEMB      36              0.0000000000
      5675        88  POPC      C310          -20.0928581533       20.7453020379        6.6179640787  MEMB      36              0.0000000000
      5676        88  POPC      H10X          -19.2763373086       21.2031818847        6.0232190682  MEMB      36              0.0000000000
      5677        88  POPC      H10Y          -20.9451097165       21.4590980670        6.6322645782  MEMB      36              0.0000000000
      5678        88  POPC      C311          -20.5821660084       19.4784898687        5.9246480904  MEMB      36              0.0000000000
      5679        88  POPC      H11X          -21.3208573595       18.9927464340        6.5991984818  MEMB      36              0.0000000000
      5680        88  POPC      H11Y          -19.7076932750       18.8104520836        5.7698647108  MEMB      36              0.0000000000
      5681        88  POPC      C312          -21.2282897987       19.7116537487        4.5576293451  MEMB      36              0.0000000000
      5682        88  POPC      H12X          -20.4021888041       19.9063502545        3.8381073254  MEMB      36              0.0000000000
      5683        88  POPC      H12Y          -21.8819995394       20.6112185448        4.5952945811  MEMB      36              0.0000000000
      5684        88  POPC      C313          -22.0770264367       18.5164932357        4.0945220661  MEMB      36              0.0000000000
      5685        88  POPC      H13X          -23.0800012569       18.5864396095        4.5698280805  MEMB      36              0.0000000000
      5686        88  POPC      H13Y          -21.6073699557       17.5757100554        4.4638462054  MEMB      36              0.0000000000
      5687        88  POPC      C314          -22.2219120414       18.3700170512        2.5696358882  MEMB      36              0.0000000000
      5688        88  POPC      H14X          -23.1295770464       17.7666718254        2.3407613001  MEMB      36              0.0000000000
      5689        88  POPC      H14Y          -21.3560841446       17.7705736539        2.2114631642  MEMB      36              0.0000000000
      5690        88  POPC      C315          -22.2626553423       19.6667486059        1.7488311249  MEMB      36              0.0000000000
      5691        88  POPC      H15X          -21.4719879996       20.3783905737        2.0734557761  MEMB      36              0.0000000000
      5692        88  POPC      H15Y          -23.2417080855       20.1748082868        1.8959531569  MEMB      36              0.0000000000
      5693        88  POPC      C316          -22.0333465093       19.3688930836        0.2653659607  MEMB      36              0.0000000000
      5694        88  POPC      H16X          -22.0703435392       20.2960395406       -0.3442490035  MEMB      36              0.0000000000
      5695        88  POPC      H16Y          -22.8021222372       18.6582753995       -0.1020052640  MEMB      36              0.0000000000
      5696        88  POPC      H16Z          -21.0379733384       18.8942005293        0.1247854832  MEMB      36              0.0000000000
      5697        89  POPC      N              25.3259183500       -3.5036068051       19.7066338669  MEMB      37              0.0000000000
      5698        89  POPC      C12            25.3583089750       -2.0211032174       19.3163162822  MEMB      37              0.0000000000
      5699        89  POPC      H12A           25.9182780219       -1.4710988113       20.0762638842  MEMB      37              0.0000000000
      5700        89  POPC      H12B           24.3482066671       -1.6342257329       19.3466516688  MEMB      37              0.0000000000
      5701        89  POPC      C13            26.7082495542       -3.9369847848       20.0509080639  MEMB      37              0.0000000000
      5702        89  POPC      H13A           27.3661531041       -3.7438692910       19.1921458041  MEMB      37              0.0000000000
      5703        89  POPC      H13B           27.1740130244       -3.2872385851       20.7948280690  MEMB      37              0.0000000000
      5704        89  POPC      H13C           26.7814435824       -4.9641285254       20.3445896291  MEMB      37              0.0000000000
      5705        89  POPC      C14            24.4130628416       -3.7102803046       20.8786885103  MEMB      37              0.0000000000
      5706        89  POPC      H14A           24.4188858691       -4.7396565044       21.2212304577  MEMB      37              0.0000000000
      5707        89  POPC      H14B           24.7147214240       -3.0809899947       21.7137221698  MEMB      37              0.0000000000
      5708        89  POPC      H14C           23.3861742605       -3.4610725889       20.6358643387  MEMB      37              0.0000000000
      5709        89  POPC      C15            24.8909861540       -4.3464869084       18.5501138014  MEMB      37              0.0000000000
      5710        89  POPC      H15A           23.9240344158       -4.0419916329       18.1853532344  MEMB      37              0.0000000000
      5711        89  POPC      H15B           24.8539862270       -5.3987582024       18.8243224042  MEMB      37              0.0000000000
      5712        89  POPC      H15C           25.6171232418       -4.2116375210       17.7462777706  MEMB      37              0.0000000000
      5713        89  POPC      C11            25.9953318860       -1.6237099541       17.9481299986  MEMB      37              0.0000000000
      5714        89  POPC      H11A           25.7861797003       -0.5454024001       17.7451994239  MEMB      37              0.0000000000
      5715        89  POPC      H11B           25.5009937087       -2.1829431927       17.1237531207  MEMB      37              0.0000000000
      5716        89  POPC      P              28.3556714124       -1.0388351000       18.8671113118  MEMB      37              0.0000000000
      5717        89  POPC      O13            28.5825951924       -1.8964798340       20.0526560779  MEMB      37              0.0000000000
      5718        89  POPC      O14            27.7584218661        0.2993401124       19.1043566244  MEMB      37              0.0000000000
      5719        89  POPC      O12            27.4025658659       -1.8729583449       17.8979008905  MEMB      37              0.0000000000
      5720        89  POPC      O11            29.7334907374       -0.8526073442       18.0958328428  MEMB      37              0.0000000000
      5721        89  POPC      C1             30.2820940708       -1.8985457134       17.2924279459  MEMB      37              0.0000000000
      5722        89  POPC      HA             29.7383847331       -2.8605162191       17.4213568420  MEMB      37              0.0000000000
      5723        89  POPC      HB             31.3331981286       -2.0813168143       17.6070858902  MEMB      37              0.0000000000
      5724        89  POPC      C2             30.3043571465       -1.5215855199       15.7847044191  MEMB      37              0.0000000000
      5725        89  POPC      HS             31.1697995366       -0.8243445716       15.6775339998  MEMB      37              0.0000000000
      5726        89  POPC      O21            29.0850900216       -0.8600922858       15.4108299713  MEMB      37              0.0000000000
      5727        89  POPC      C21            29.1893202076       -0.2381950799       14.2557935635  MEMB      37              0.0000000000
      5728        89  POPC      O22            30.2296136233        0.1376624506       13.7388794982  MEMB      37              0.0000000000
      5729        89  POPC      C22            27.8060019765       -0.1544008876       13.6199724872  MEMB      37              0.0000000000
      5730        89  POPC      H2R            27.9036967665        0.4818215335       12.7160216076  MEMB      37              0.0000000000
      5731        89  POPC      H2S            27.1064694820        0.3435708087       14.3209721280  MEMB      37              0.0000000000
      5732        89  POPC      C3             30.5223183026       -2.7543182824       14.8485407457  MEMB      37              0.0000000000
      5733        89  POPC      HX             31.3958585844       -3.3274560763       15.2177549621  MEMB      37              0.0000000000
      5734        89  POPC      HY             30.7918201956       -2.3819827183       13.8341137981  MEMB      37              0.0000000000
      5735        89  POPC      O31            29.3252521873       -3.5597957830       14.7235458482  MEMB      37              0.0000000000
      5736        89  POPC      C31            29.2328596101       -4.6371230734       15.5120288994  MEMB      37              0.0000000000
      5737        89  POPC      O32            30.1212969456       -5.0532059718       16.2319233515  MEMB      37              0.0000000000
      5738        89  POPC      C32            27.8145908714       -5.2030615774       15.5120986736  MEMB      37              0.0000000000
      5739        89  POPC      H2X            27.0948782556       -4.3670653590       15.3981868339  MEMB      37              0.0000000000
      5740        89  POPC      H2Y            27.6791289815       -5.6586388876       16.5183192702  MEMB      37              0.0000000000
      5741        89  POPC      C23            27.2794909352       -1.5509168770       13.2163949151  MEMB      37              0.0000000000
      5742        89  POPC      H3R            26.9705450789       -2.1321738752       14.1143679419  MEMB      37              0.0000000000
      5743        89  POPC      H3S            28.1059040852       -2.1180985781       12.7238862351  MEMB      37              0.0000000000
      5744        89  POPC      C24            26.1173960425       -1.4647925105       12.2161016612  MEMB      37              0.0000000000
      5745        89  POPC      H4R            26.3642871512       -0.6714970530       11.4819602540  MEMB      37              0.0000000000
      5746        89  POPC      H4S            25.1929303861       -1.1518743311       12.7470279637  MEMB      37              0.0000000000
      5747        89  POPC      C25            25.8860826028       -2.7970562896       11.4799868348  MEMB      37              0.0000000000
      5748        89  POPC      H5R            25.6323029295       -3.5557390121       12.2427181161  MEMB      37              0.0000000000
      5749        89  POPC      H5S            26.8296635236       -3.0928567309       10.9727367912  MEMB      37              0.0000000000
      5750        89  POPC      C26            24.7265829151       -2.8505005792       10.4724157273  MEMB      37              0.0000000000
      5751        89  POPC      H6R            23.7808350155       -2.6811789533       11.0396911260  MEMB      37              0.0000000000
      5752        89  POPC      H6S            24.6512574425       -3.8574086666       10.0082533531  MEMB      37              0.0000000000
      5753        89  POPC      C27            24.8340039696       -1.8005279443        9.3754450373  MEMB      37              0.0000000000
      5754        89  POPC      H7R            25.1011424116       -0.8604959048        9.8831864923  MEMB      37              0.0000000000
      5755        89  POPC      H7S            23.8397097398       -1.6333193962        8.9360448851  MEMB      37              0.0000000000
      5756        89  POPC      C28            25.8244886975       -2.1027830550        8.2452198541  MEMB      37              0.0000000000
      5757        89  POPC      H8R            25.4724688655       -2.9616070100        7.6333540898  MEMB      37              0.0000000000
      5758        89  POPC      H8S            26.8084753877       -2.3782222158        8.6803300827  MEMB      37              0.0000000000
      5759        89  POPC      C29            25.9181265895       -0.8443511520        7.4272092591  MEMB      37              0.0000000000
      5760        89  POPC      H91            25.3741341128       -0.8457841646        6.4697976317  MEMB      37              0.0000000000
      5761        89  POPC      C210           26.6342529412        0.2369470803        7.7860013292  MEMB      37              0.0000000000
      5762        89  POPC      H101           26.6414200412        1.1201128212        7.1290580234  MEMB      37              0.0000000000
      5763        89  POPC      C211           27.4655734958        0.3767330044        9.0339722579  MEMB      37              0.0000000000
      5764        89  POPC      H11R           27.5021474630       -0.5672235132        9.6201734413  MEMB      37              0.0000000000
      5765        89  POPC      H11S           27.0434078325        1.1616979748        9.7002016898  MEMB      37              0.0000000000
      5766        89  POPC      C212           28.9144607490        0.7595574234        8.6860689101  MEMB      37              0.0000000000
      5767        89  POPC      H12R           29.4991379084        0.7157737491        9.6344657356  MEMB      37              0.0000000000
      5768        89  POPC      H12S           28.9433573602        1.8113725509        8.3474362841  MEMB      37              0.0000000000
      5769        89  POPC      C213           29.6213323522       -0.1582382507        7.6607217688  MEMB      37              0.0000000000
      5770        89  POPC      H13R           29.4689971569       -1.2067168459        7.9868893358  MEMB      37              0.0000000000
      5771        89  POPC      H13S           30.7057109795        0.0409482722        7.7459538630  MEMB      37              0.0000000000
      5772        89  POPC      C214           29.2318660847       -0.0100298251        6.1653925556  MEMB      37              0.0000000000
      5773        89  POPC      H14R           28.2385509846       -0.4590006333        6.0099284105  MEMB      37              0.0000000000
      5774        89  POPC      H14S           29.8742325218       -0.6585348497        5.5444929009  MEMB      37              0.0000000000
      5775        89  POPC      C215           29.2770871264        1.4322032936        5.6215528620  MEMB      37              0.0000000000
      5776        89  POPC      H15R           30.3491530074        1.7123024302        5.4899410084  MEMB      37              0.0000000000
      5777        89  POPC      H15S           28.8389455182        2.1411498797        6.3524391141  MEMB      37              0.0000000000
      5778        89  POPC      C216           28.5498669869        1.6688394757        4.2803139966  MEMB      37              0.0000000000
      5779        89  POPC      H16R           29.1162673880        1.1152596587        3.5023435045  MEMB      37              0.0000000000
      5780        89  POPC      H16S           28.6232326265        2.7518979341        4.0308009937  MEMB      37              0.0000000000
      5781        89  POPC      C217           27.0697384733        1.2434228079        4.2121123663  MEMB      37              0.0000000000
      5782        89  POPC      H17R           26.8339121925        0.4842436421        4.9805080612  MEMB      37              0.0000000000
      5783        89  POPC      H17S           26.8950073297        0.7398973395        3.2352800146  MEMB      37              0.0000000000
      5784        89  POPC      C218           26.0546630206        2.3811288524        4.3383957194  MEMB      37              0.0000000000
      5785        89  POPC      H18R           25.0713348171        1.9611143605        4.6220369526  MEMB      37              0.0000000000
      5786        89  POPC      H18S           25.9071501425        2.9113844508        3.3770045805  MEMB      37              0.0000000000
      5787        89  POPC      H18T           26.3636142587        3.1194233776        5.1085937479  MEMB      37              0.0000000000
      5788        89  POPC      C33            27.5889622320       -6.2982771147       14.4432008448  MEMB      37              0.0000000000
      5789        89  POPC      H3X            26.6595879218       -6.8538051065       14.7060607997  MEMB      37              0.0000000000
      5790        89  POPC      H3Y            28.4234147490       -7.0348406150       14.4285682068  MEMB      37              0.0000000000
      5791        89  POPC      C34            27.3694292281       -5.6840483758       13.0556253050  MEMB      37              0.0000000000
      5792        89  POPC      H4X            28.2946205462       -5.1663431345       12.7237589779  MEMB      37              0.0000000000
      5793        89  POPC      H4Y            26.5802025110       -4.9208740357       13.1849208586  MEMB      37              0.0000000000
      5794        89  POPC      C35            26.9049104217       -6.6955255354       11.9985874714  MEMB      37              0.0000000000
      5795        89  POPC      H5X            25.8952552970       -7.0675912823       12.2908394017  MEMB      37              0.0000000000
      5796        89  POPC      H5Y            27.6030174098       -7.5602473937       12.0030064282  MEMB      37              0.0000000000
      5797        89  POPC      C36            26.7960797630       -6.1432058319       10.5653143021  MEMB      37              0.0000000000
      5798        89  POPC      H6X            25.9930262232       -5.3792154437       10.5439799262  MEMB      37              0.0000000000
      5799        89  POPC      H6Y            26.4704162231       -6.9614750353        9.8854841564  MEMB      37              0.0000000000
      5800        89  POPC      C37            28.0833558432       -5.5238345896       10.0043182188  MEMB      37              0.0000000000
      5801        89  POPC      H7X            28.9148925185       -6.2567189321       10.0830188767  MEMB      37              0.0000000000
      5802        89  POPC      H7Y            28.3638858486       -4.6377475911       10.6144057831  MEMB      37              0.0000000000
      5803        89  POPC      C38            27.9246568190       -5.0726758956        8.5414702233  MEMB      37              0.0000000000
      5804        89  POPC      H8X            26.9382883876       -4.5762434768        8.4244851388  MEMB      37              0.0000000000
      5805        89  POPC      H8Y            27.9240653293       -5.9672374162        7.8822503077  MEMB      37              0.0000000000
      5806        89  POPC      C39            29.0240612054       -4.0834715928        8.1255107394  MEMB      37              0.0000000000
      5807        89  POPC      H9X            30.0097491655       -4.5642839300        8.2550351600  MEMB      37              0.0000000000
      5808        89  POPC      H9Y            29.0047304041       -3.2274316917        8.8380294229  MEMB      37              0.0000000000
      5809        89  POPC      C310           28.9239185988       -3.5239323833        6.6955568985  MEMB      37              0.0000000000
      5810        89  POPC      H10X           29.8672896376       -2.9718842287        6.4755181171  MEMB      37              0.0000000000
      5811        89  POPC      H10Y           28.1034885821       -2.7743656161        6.6685041729  MEMB      37              0.0000000000
      5812        89  POPC      C311           28.6958299972       -4.5423683308        5.5692100056  MEMB      37              0.0000000000
      5813        89  POPC      H11X           28.8860903924       -5.5814784953        5.9125654455  MEMB      37              0.0000000000
      5814        89  POPC      H11Y           29.4510127160       -4.3343484879        4.7762958769  MEMB      37              0.0000000000
      5815        89  POPC      C312           27.2927235933       -4.4242301804        4.9468756892  MEMB      37              0.0000000000
      5816        89  POPC      H12X           26.9790363093       -3.3563292217        4.9117532068  MEMB      37              0.0000000000
      5817        89  POPC      H12Y           26.5691278461       -4.9654170367        5.5958423982  MEMB      37              0.0000000000
      5818        89  POPC      C313           27.2320785267       -4.9721690478        3.5164699954  MEMB      37              0.0000000000
      5819        89  POPC      H13X           26.1702443923       -5.1093121525        3.2104842124  MEMB      37              0.0000000000
      5820        89  POPC      H13Y           27.7125029622       -5.9766387731        3.5138636113  MEMB      37              0.0000000000
      5821        89  POPC      C314           27.9371904401       -4.0649490656        2.4934068978  MEMB      37              0.0000000000
      5822        89  POPC      H14X           28.5855219634       -4.6979690361        1.8462132836  MEMB      37              0.0000000000
      5823        89  POPC      H14Y           28.6108305698       -3.3450854908        3.0092246216  MEMB      37              0.0000000000
      5824        89  POPC      C315           26.9674049538       -3.2793195480        1.5988956468  MEMB      37              0.0000000000
      5825        89  POPC      H15X           26.3863665679       -2.5673519736        2.2275750762  MEMB      37              0.0000000000
      5826        89  POPC      H15Y           26.2413548445       -3.9814778641        1.1284863233  MEMB      37              0.0000000000
      5827        89  POPC      C316           27.6924150266       -2.5051670916        0.4973509322  MEMB      37              0.0000000000
      5828        89  POPC      H16X           26.9765276417       -1.9408936312       -0.1363132624  MEMB      37              0.0000000000
      5829        89  POPC      H16Y           28.2794542575       -3.1851607271       -0.1555437209  MEMB      37              0.0000000000
      5830        89  POPC      H16Z           28.3958480539       -1.7815719147        0.9533084555  MEMB      37              0.0000000000
      5831        90  POPC      N              18.2442028479      -22.9927505786       20.5671392881  MEMB      38              0.0000000000
      5832        90  POPC      C12            19.3872160771      -23.8936594833       21.0134887483  MEMB      38              0.0000000000
      5833        90  POPC      H12A           19.0421535660      -24.5393764085       21.8233268432  MEMB      38              0.0000000000
      5834        90  POPC      H12B           20.2022120963      -23.2941420211       21.4010758021  MEMB      38              0.0000000000
      5835        90  POPC      C13            16.9602197311      -23.7370086998       20.6125501094  MEMB      38              0.0000000000
      5836        90  POPC      H13A           16.8072762568      -24.1898017656       21.5893605821  MEMB      38              0.0000000000
      5837        90  POPC      H13B           16.1184988418      -23.1044400225       20.4116353897  MEMB      38              0.0000000000
      5838        90  POPC      H13C           16.9957991063      -24.5706171574       19.9149934800  MEMB      38              0.0000000000
      5839        90  POPC      C14            18.0796878930      -21.8150165358       21.4620461007  MEMB      38              0.0000000000
      5840        90  POPC      H14A           17.2777045578      -21.1626700985       21.1370128338  MEMB      38              0.0000000000
      5841        90  POPC      H14B           17.8545561742      -22.1222008986       22.4841377456  MEMB      38              0.0000000000
      5842        90  POPC      H14C           18.9734442868      -21.1957221140       21.5284017020  MEMB      38              0.0000000000
      5843        90  POPC      C15            18.5098541353      -22.6200231842       19.1483747464  MEMB      38              0.0000000000
      5844        90  POPC      H15A           19.4673973369      -22.1250247037       19.0522729837  MEMB      38              0.0000000000
      5845        90  POPC      H15B           17.7202814801      -22.0407882654       18.7078860120  MEMB      38              0.0000000000
      5846        90  POPC      H15C           18.5949499926      -23.5518679477       18.5748417492  MEMB      38              0.0000000000
      5847        90  POPC      C11            19.9794585323      -24.8044940243       19.9202755072  MEMB      38              0.0000000000
      5848        90  POPC      H11A           20.7476287600      -25.4694213851       20.3697680277  MEMB      38              0.0000000000
      5849        90  POPC      H11B           20.5156689529      -24.1954791218       19.1499835272  MEMB      38              0.0000000000
      5850        90  POPC      P              19.3222313547      -26.3886839526       18.0336354122  MEMB      38              0.0000000000
      5851        90  POPC      O13            18.3173400094      -27.4556015047       17.8250009348  MEMB      38              0.0000000000
      5852        90  POPC      O14            20.7502706703      -26.7711716954       18.1420179827  MEMB      38              0.0000000000
      5853        90  POPC      O12            18.9409093095      -25.5999060515       19.3507051679  MEMB      38              0.0000000000
      5854        90  POPC      O11            19.1248489614      -25.1957501117       16.9815837315  MEMB      38              0.0000000000
      5855        90  POPC      C1             18.0033898137      -25.1885713601       16.1041568575  MEMB      38              0.0000000000
      5856        90  POPC      HA             17.6926225672      -24.1413006326       15.8994160223  MEMB      38              0.0000000000
      5857        90  POPC      HB             17.1156464016      -25.7043225259       16.5469759375  MEMB      38              0.0000000000
      5858        90  POPC      C2             18.3362143607      -25.8562842844       14.7441487544  MEMB      38              0.0000000000
      5859        90  POPC      HS             18.6716113012      -26.8993200608       14.9608548551  MEMB      38              0.0000000000
      5860        90  POPC      O21            19.3094698943      -25.0684102385       14.0119470684  MEMB      38              0.0000000000
      5861        90  POPC      C21            20.5322643358      -25.5912702353       13.9359341976  MEMB      38              0.0000000000
      5862        90  POPC      O22            20.9043291676      -26.6304185422       14.4430716955  MEMB      38              0.0000000000
      5863        90  POPC      C22            21.4543158422      -24.7604793810       13.0295918240  MEMB      38              0.0000000000
      5864        90  POPC      H2R            22.0132348777      -25.4799288061       12.4002402636  MEMB      38              0.0000000000
      5865        90  POPC      H2S            22.1804947996      -24.2487932917       13.6924317036  MEMB      38              0.0000000000
      5866        90  POPC      C3             17.0137862073      -25.9278032959       13.9297122442  MEMB      38              0.0000000000
      5867        90  POPC      HX             16.6653465545      -24.8798038470       13.7899143723  MEMB      38              0.0000000000
      5868        90  POPC      HY             16.2468587176      -26.4514038440       14.5448336211  MEMB      38              0.0000000000
      5869        90  POPC      O31            17.1578524882      -26.5286633088       12.6304603469  MEMB      38              0.0000000000
      5870        90  POPC      C31            17.2148146706      -27.8566208555       12.6383971808  MEMB      38              0.0000000000
      5871        90  POPC      O32            17.1431703897      -28.5665128565       13.6267436955  MEMB      38              0.0000000000
      5872        90  POPC      C32            17.3817743050      -28.3562501026       11.2086025693  MEMB      38              0.0000000000
      5873        90  POPC      H2X            17.1969560583      -29.4505950099       11.2292630179  MEMB      38              0.0000000000
      5874        90  POPC      H2Y            18.4359232015      -28.1706281223       10.9298025893  MEMB      38              0.0000000000
      5875        90  POPC      C23            20.7727022713      -23.7357135785       12.0935106612  MEMB      38              0.0000000000
      5876        90  POPC      H3R            21.5500438781      -23.0043670294       11.7692032091  MEMB      38              0.0000000000
      5877        90  POPC      H3S            20.0006640011      -23.1627193361       12.6492459754  MEMB      38              0.0000000000
      5878        90  POPC      C24            20.1976385446      -24.3823963259       10.8248552880  MEMB      38              0.0000000000
      5879        90  POPC      H4R            19.4487805923      -25.1575405015       11.1008200018  MEMB      38              0.0000000000
      5880        90  POPC      H4S            21.0242902773      -24.8978236206       10.2840821160  MEMB      38              0.0000000000
      5881        90  POPC      C25            19.5708319408      -23.3533835812        9.8719154966  MEMB      38              0.0000000000
      5882        90  POPC      H5R            19.4371255004      -23.7986682218        8.8630072852  MEMB      38              0.0000000000
      5883        90  POPC      H5S            20.2776379747      -22.5017036037        9.7591722674  MEMB      38              0.0000000000
      5884        90  POPC      C26            18.2149491339      -22.8183110569       10.3553388817  MEMB      38              0.0000000000
      5885        90  POPC      H6R            17.9926426872      -21.8797129234        9.8105449018  MEMB      38              0.0000000000
      5886        90  POPC      H6S            18.2819337202      -22.5578925323       11.4337327299  MEMB      38              0.0000000000
      5887        90  POPC      C27            17.0474124941      -23.7969196106       10.1372493293  MEMB      38              0.0000000000
      5888        90  POPC      H7R            16.2055597960      -23.4738467753       10.7906675629  MEMB      38              0.0000000000
      5889        90  POPC      H7S            17.3709953784      -24.7940502612       10.4885689367  MEMB      38              0.0000000000
      5890        90  POPC      C28            16.5411070875      -23.8465547758        8.6778914656  MEMB      38              0.0000000000
      5891        90  POPC      H8R            17.3595593082      -24.1668966645        8.0056052376  MEMB      38              0.0000000000
      5892        90  POPC      H8S            16.3194546551      -22.8054443095        8.3812358108  MEMB      38              0.0000000000
      5893        90  POPC      C29            15.3007260158      -24.6885889903        8.4880085591  MEMB      38              0.0000000000
      5894        90  POPC      H91            14.7546191793      -24.9162504668        9.4144124561  MEMB      38              0.0000000000
      5895        90  POPC      C210           14.8174661084      -25.1532578832        7.3185817237  MEMB      38              0.0000000000
      5896        90  POPC      H101           13.8890528962      -25.7464521381        7.3241346835  MEMB      38              0.0000000000
      5897        90  POPC      C211           15.4267376131      -24.9222849603        5.9579543589  MEMB      38              0.0000000000
      5898        90  POPC      H11R           15.3141600261      -25.8261224402        5.3174612007  MEMB      38              0.0000000000
      5899        90  POPC      H11S           16.5203290175      -24.7298443124        6.0429618018  MEMB      38              0.0000000000
      5900        90  POPC      C212           14.7972979995      -23.7216315115        5.2307280804  MEMB      38              0.0000000000
      5901        90  POPC      H12R           14.7752964898      -22.8401019852        5.9101305190  MEMB      38              0.0000000000
      5902        90  POPC      H12S           13.7498170078      -23.9526062449        4.9359973968  MEMB      38              0.0000000000
      5903        90  POPC      C213           15.6056402323      -23.3095530635        3.9957265434  MEMB      38              0.0000000000
      5904        90  POPC      H13R           15.7220122142      -24.1718597821        3.3019281182  MEMB      38              0.0000000000
      5905        90  POPC      H13S           16.6200549741      -23.0138267406        4.3466725744  MEMB      38              0.0000000000
      5906        90  POPC      C214           14.9675992054      -22.1283544906        3.2541183964  MEMB      38              0.0000000000
      5907        90  POPC      H14R           14.8073592016      -21.2924277909        3.9732700724  MEMB      38              0.0000000000
      5908        90  POPC      H14S           13.9698649202      -22.4407062060        2.8703443666  MEMB      38              0.0000000000
      5909        90  POPC      C215           15.8261715192      -21.6223727111        2.0877368818  MEMB      38              0.0000000000
      5910        90  POPC      H15R           15.2585321154      -20.8276360809        1.5504043273  MEMB      38              0.0000000000
      5911        90  POPC      H15S           15.9991238114      -22.4615605666        1.3766160469  MEMB      38              0.0000000000
      5912        90  POPC      C216           17.1704706089      -21.0255558936        2.5383320002  MEMB      38              0.0000000000
      5913        90  POPC      H16R           17.8061671088      -21.8126470685        3.0009040355  MEMB      38              0.0000000000
      5914        90  POPC      H16S           16.9748978008      -20.2511441451        3.3158892493  MEMB      38              0.0000000000
      5915        90  POPC      C217           17.9544281313      -20.3785172982        1.3914528319  MEMB      38              0.0000000000
      5916        90  POPC      H17R           18.8758499935      -19.9131269243        1.8095536161  MEMB      38              0.0000000000
      5917        90  POPC      H17S           17.3328408418      -19.5660789336        0.9501906142  MEMB      38              0.0000000000
      5918        90  POPC      C218           18.3726924303      -21.3529230380        0.2931847159  MEMB      38              0.0000000000
      5919        90  POPC      H18R           18.9659656055      -20.8241304005       -0.4827434679  MEMB      38              0.0000000000
      5920        90  POPC      H18S           17.4873032616      -21.8136495782       -0.1940088985  MEMB      38              0.0000000000
      5921        90  POPC      H18T           19.0014594208      -22.1643381542        0.7196043320  MEMB      38              0.0000000000
      5922        90  POPC      C33            16.4176390206      -27.6709320112       10.2116635473  MEMB      38              0.0000000000
      5923        90  POPC      H3X            16.6498719318      -26.5995037620       10.0938037299  MEMB      38              0.0000000000
      5924        90  POPC      H3Y            15.3917006475      -27.7317786194       10.6490079888  MEMB      38              0.0000000000
      5925        90  POPC      C34            16.3559726896      -28.3448428567        8.8316311567  MEMB      38              0.0000000000
      5926        90  POPC      H4X            15.3449185860      -28.1285197232        8.4110190018  MEMB      38              0.0000000000
      5927        90  POPC      H4Y            16.4093451284      -29.4423888782        8.9908921611  MEMB      38              0.0000000000
      5928        90  POPC      C35            17.3792225506      -27.9398414097        7.7423909894  MEMB      38              0.0000000000
      5929        90  POPC      H5X            16.8234470143      -27.4353475123        6.9178622983  MEMB      38              0.0000000000
      5930        90  POPC      H5Y            17.8014040894      -28.8701895642        7.3009036118  MEMB      38              0.0000000000
      5931        90  POPC      C36            18.5491105712      -27.0206134610        8.1390568058  MEMB      38              0.0000000000
      5932        90  POPC      H6X            19.0753715197      -27.3991244912        9.0377861937  MEMB      38              0.0000000000
      5933        90  POPC      H6Y            18.1369158535      -26.0296387223        8.4119840714  MEMB      38              0.0000000000
      5934        90  POPC      C37            19.5753584481      -26.8780454482        6.9962135643  MEMB      38              0.0000000000
      5935        90  POPC      H7X            19.1865325692      -27.4399473569        6.1173796705  MEMB      38              0.0000000000
      5936        90  POPC      H7Y            20.5264642126      -27.3751641060        7.2873655128  MEMB      38              0.0000000000
      5937        90  POPC      C38            19.8657768946      -25.4291766732        6.5593562118  MEMB      38              0.0000000000
      5938        90  POPC      H8X            20.7743555660      -25.0721316508        7.0931954243  MEMB      38              0.0000000000
      5939        90  POPC      H8Y            19.0224364189      -24.7647324758        6.8440229649  MEMB      38              0.0000000000
      5940        90  POPC      C39            20.0528048061      -25.2914542688        5.0394116168  MEMB      38              0.0000000000
      5941        90  POPC      H9X            20.7621301761      -26.0740638381        4.6999207115  MEMB      38              0.0000000000
      5942        90  POPC      H9Y            20.5075344094      -24.3052803536        4.7952499505  MEMB      38              0.0000000000
      5943        90  POPC      C310           18.7263082731      -25.4256293897        4.2682713506  MEMB      38              0.0000000000
      5944        90  POPC      H10X           18.2571008137      -24.4224530064        4.1916342373  MEMB      38              0.0000000000
      5945        90  POPC      H10Y           18.0268440681      -26.0662391956        4.8508746536  MEMB      38              0.0000000000
      5946        90  POPC      C311           18.8626452615      -26.0540394047        2.8724682886  MEMB      38              0.0000000000
      5947        90  POPC      H11X           17.8634046382      -26.0930984433        2.3829393609  MEMB      38              0.0000000000
      5948        90  POPC      H11Y           19.2138827579      -27.1034035520        3.0014228701  MEMB      38              0.0000000000
      5949        90  POPC      C312           19.8474451985      -25.3163199551        1.9574119874  MEMB      38              0.0000000000
      5950        90  POPC      H12X           20.8048144418      -25.1830432213        2.5106531259  MEMB      38              0.0000000000
      5951        90  POPC      H12Y           19.4652121354      -24.3041649834        1.7045386137  MEMB      38              0.0000000000
      5952        90  POPC      C313           20.1789605995      -26.1073415513        0.6849351006  MEMB      38              0.0000000000
      5953        90  POPC      H13X           20.1558005413      -27.1945711180        0.9100607870  MEMB      38              0.0000000000
      5954        90  POPC      H13Y           21.2237839064      -25.8517618154        0.3943984696  MEMB      38              0.0000000000
      5955        90  POPC      C314           19.2794595862      -25.7960148431       -0.5187807523  MEMB      38              0.0000000000
      5956        90  POPC      H14X           19.1176455804      -24.6984509132       -0.5669389996  MEMB      38              0.0000000000
      5957        90  POPC      H14Y           18.2825689587      -26.2556355194       -0.3827398972  MEMB      38              0.0000000000
      5958        90  POPC      C315           19.9089352224      -26.2609618766       -1.8430072447  MEMB      38              0.0000000000
      5959        90  POPC      H15X           20.9276833755      -25.8160817205       -1.9034573380  MEMB      38              0.0000000000
      5960        90  POPC      H15Y           19.3193236312      -25.8565531372       -2.6966624348  MEMB      38              0.0000000000
      5961        90  POPC      C316           20.0404129654      -27.7771216839       -2.0036403237  MEMB      38              0.0000000000
      5962        90  POPC      H16X           19.0553227978      -28.2466615454       -2.1828238338  MEMB      38              0.0000000000
      5963        90  POPC      H16Y           20.4741339940      -28.2438729943       -1.0974784464  MEMB      38              0.0000000000
      5964        90  POPC      H16Z           20.7024283321      -28.0118850101       -2.8632335301  MEMB      38              0.0000000000
      5965        91  POPC      N             -23.3740997525       12.7128641210       18.9231793938  MEMB      39              0.0000000000
      5966        91  POPC      C12           -24.7639017251       12.3655582408       18.3812455635  MEMB      39              0.0000000000
      5967        91  POPC      H12A          -24.7362641278       11.3505577238       17.9860840900  MEMB      39              0.0000000000
      5968        91  POPC      H12B          -25.0039033171       13.0126638575       17.5471713691  MEMB      39              0.0000000000
      5969        91  POPC      C13           -23.1422248042       11.8822953690       20.1412320089  MEMB      39              0.0000000000
      5970        91  POPC      H13A          -22.2287762408       12.1212996708       20.6666590014  MEMB      39              0.0000000000
      5971        91  POPC      H13B          -23.9797826615       12.0686533218       20.8124332870  MEMB      39              0.0000000000
      5972        91  POPC      H13C          -23.1344349876       10.8193835295       19.9058705961  MEMB      39              0.0000000000
      5973        91  POPC      C14           -22.2830988898       12.4752668614       17.9255661818  MEMB      39              0.0000000000
      5974        91  POPC      H14A          -22.4909850098       12.9402080860       16.9740376270  MEMB      39              0.0000000000
      5975        91  POPC      H14B          -21.3215316452       12.8132186227       18.2970095062  MEMB      39              0.0000000000
      5976        91  POPC      H14C          -22.1757389870       11.4053004938       17.7510877819  MEMB      39              0.0000000000
      5977        91  POPC      C15           -23.3561710016       14.1420559425       19.3271666418  MEMB      39              0.0000000000
      5978        91  POPC      H15A          -23.7088888800       14.7747127123       18.5133640368  MEMB      39              0.0000000000
      5979        91  POPC      H15B          -22.3761647592       14.4400799996       19.6506412432  MEMB      39              0.0000000000
      5980        91  POPC      H15C          -24.0814797794       14.2689710429       20.1282754564  MEMB      39              0.0000000000
      5981        91  POPC      C11           -25.9808216196       12.4763493841       19.3632106758  MEMB      39              0.0000000000
      5982        91  POPC      H11A          -25.8038168446       11.7823349808       20.2032239503  MEMB      39              0.0000000000
      5983        91  POPC      H11B          -26.8900110825       12.0774724727       18.8530029200  MEMB      39              0.0000000000
      5984        91  POPC      P             -26.8898683472       14.9096223942       18.9723457741  MEMB      39              0.0000000000
      5985        91  POPC      O13           -25.8127906029       15.5846899048       18.2065338045  MEMB      39              0.0000000000
      5986        91  POPC      O14           -27.8382760174       15.8013118314       19.6807879492  MEMB      39              0.0000000000
      5987        91  POPC      O12           -26.2141537470       13.7896942100       19.9029506373  MEMB      39              0.0000000000
      5988        91  POPC      O11           -27.7292174985       14.0153904509       17.9695390720  MEMB      39              0.0000000000
      5989        91  POPC      C1            -28.8284261689       14.4657005963       17.2033372625  MEMB      39              0.0000000000
      5990        91  POPC      HA            -28.9025778978       15.5730088262       17.1819599356  MEMB      39              0.0000000000
      5991        91  POPC      HB            -29.7705441005       14.0745762504       17.6470056022  MEMB      39              0.0000000000
      5992        91  POPC      C2            -28.7132151420       13.9725957956       15.7386443516  MEMB      39              0.0000000000
      5993        91  POPC      HS            -29.0103633446       12.8949273764       15.7177283165  MEMB      39              0.0000000000
      5994        91  POPC      O21           -27.3844583046       14.1787721676       15.2071689878  MEMB      39              0.0000000000
      5995        91  POPC      C21           -26.5816157441       13.1373706580       15.3631320752  MEMB      39              0.0000000000
      5996        91  POPC      O22           -26.8955511188       12.0570032198       15.8387665603  MEMB      39              0.0000000000
      5997        91  POPC      C22           -25.1880320375       13.4336225074       14.7751979963  MEMB      39              0.0000000000
      5998        91  POPC      H2R           -25.3235399163       13.6462630943       13.6953495642  MEMB      39              0.0000000000
      5999        91  POPC      H2S           -24.6029241148       12.4941510253       14.8688134180  MEMB      39              0.0000000000
      6000        91  POPC      C3            -29.7273327372       14.7132423950       14.8494592362  MEMB      39              0.0000000000
      6001        91  POPC      HX            -29.4712797695       15.7931835815       14.8061011019  MEMB      39              0.0000000000
      6002        91  POPC      HY            -30.7171342042       14.6017419847       15.3587175153  MEMB      39              0.0000000000
      6003        91  POPC      O31           -29.6783983192       14.1505509382       13.5262403534  MEMB      39              0.0000000000
      6004        91  POPC      C31           -30.8455221581       13.9626540980       12.9620420845  MEMB      39              0.0000000000
      6005        91  POPC      O32           -31.9097322684       14.3126916900       13.4345881463  MEMB      39              0.0000000000
      6006        91  POPC      C32           -30.6625842547       13.2819748795       11.6093428316  MEMB      39              0.0000000000
      6007        91  POPC      H2X           -29.9802325341       13.8981273984       10.9928728426  MEMB      39              0.0000000000
      6008        91  POPC      H2Y           -31.6628930223       13.2772970932       11.1284400086  MEMB      39              0.0000000000
      6009        91  POPC      C23           -24.4047512498       14.5922710867       15.4523832702  MEMB      39              0.0000000000
      6010        91  POPC      H3R           -24.3352174190       14.4072560524       16.5447908662  MEMB      39              0.0000000000
      6011        91  POPC      H3S           -24.9819861070       15.5364159659       15.3305254793  MEMB      39              0.0000000000
      6012        91  POPC      C24           -22.9648057519       14.7879550447       14.9213750751  MEMB      39              0.0000000000
      6013        91  POPC      H4R           -22.3491380020       13.9035967308       15.2025306029  MEMB      39              0.0000000000
      6014        91  POPC      H4S           -22.5152736829       15.6821136074       15.4100365107  MEMB      39              0.0000000000
      6015        91  POPC      C25           -22.8334340528       14.9582773762       13.3976376318  MEMB      39              0.0000000000
      6016        91  POPC      H5R           -23.1288499265       14.0097164585       12.8999691470  MEMB      39              0.0000000000
      6017        91  POPC      H5S           -21.7681415725       15.1448981025       13.1294099807  MEMB      39              0.0000000000
      6018        91  POPC      C26           -23.6908158423       16.0958342209       12.8354138394  MEMB      39              0.0000000000
      6019        91  POPC      H6R           -23.3966850420       17.0553306384       13.3149937349  MEMB      39              0.0000000000
      6020        91  POPC      H6S           -24.7523946709       15.9017706883       13.1052311009  MEMB      39              0.0000000000
      6021        91  POPC      C27           -23.5633811578       16.2385094619       11.3074470385  MEMB      39              0.0000000000
      6022        91  POPC      H7R           -22.7803950902       15.5381086926       10.9384596781  MEMB      39              0.0000000000
      6023        91  POPC      H7S           -23.2048634550       17.2681223204       11.0771907959  MEMB      39              0.0000000000
      6024        91  POPC      C28           -24.8724742506       15.9739069798       10.5374535816  MEMB      39              0.0000000000
      6025        91  POPC      H8R           -25.1696763871       14.9092142955       10.6647025545  MEMB      39              0.0000000000
      6026        91  POPC      H8S           -24.6726178995       16.1369045556        9.4544003182  MEMB      39              0.0000000000
      6027        91  POPC      C29           -25.9621351126       16.8934047922       11.0247175780  MEMB      39              0.0000000000
      6028        91  POPC      H91           -25.6017385454       17.7246594870       11.6423742781  MEMB      39              0.0000000000
      6029        91  POPC      C210          -27.2785138878       16.7922312218       10.7801946841  MEMB      39              0.0000000000
      6030        91  POPC      H101          -27.9637934157       17.5625039255       11.1718946441  MEMB      39              0.0000000000
      6031        91  POPC      C211          -27.9233730839       15.7206756964        9.9482117230  MEMB      39              0.0000000000
      6032        91  POPC      H11R          -29.0217116086       15.7078962787       10.1217252656  MEMB      39              0.0000000000
      6033        91  POPC      H11S          -27.5265037156       14.7078897238       10.1892907572  MEMB      39              0.0000000000
      6034        91  POPC      C212          -27.6480984067       16.0336659865        8.4780871216  MEMB      39              0.0000000000
      6035        91  POPC      H12R          -26.5549459863       15.9710510785        8.2751948949  MEMB      39              0.0000000000
      6036        91  POPC      H12S          -27.9578787722       17.0732055697        8.2330162177  MEMB      39              0.0000000000
      6037        91  POPC      C213          -28.3596166100       15.0831604902        7.5281476805  MEMB      39              0.0000000000
      6038        91  POPC      H13R          -29.4636258555       15.1923265654        7.6241632643  MEMB      39              0.0000000000
      6039        91  POPC      H13S          -28.0835181968       14.0309796353        7.7690219255  MEMB      39              0.0000000000
      6040        91  POPC      C214          -27.9351049191       15.3822312812        6.0990856613  MEMB      39              0.0000000000
      6041        91  POPC      H14R          -26.8309019183       15.2733629987        6.0246356193  MEMB      39              0.0000000000
      6042        91  POPC      H14S          -28.1827637269       16.4367231065        5.8434135485  MEMB      39              0.0000000000
      6043        91  POPC      C215          -28.6000167754       14.4312006841        5.1169723113  MEMB      39              0.0000000000
      6044        91  POPC      H15R          -29.6980878279       14.6081242181        5.1395761382  MEMB      39              0.0000000000
      6045        91  POPC      H15S          -28.4118949776       13.3809507320        5.4343217558  MEMB      39              0.0000000000
      6046        91  POPC      C216          -28.0738852067       14.6402547143        3.7050041193  MEMB      39              0.0000000000
      6047        91  POPC      H16R          -28.2457623129       13.7179105311        3.1044768889  MEMB      39              0.0000000000
      6048        91  POPC      H16S          -26.9859748288       14.8341104494        3.7082394731  MEMB      39              0.0000000000
      6049        91  POPC      C217          -28.7466377715       15.8262573392        3.0307945153  MEMB      39              0.0000000000
      6050        91  POPC      H17R          -28.0838389889       16.1768654198        2.2174672249  MEMB      39              0.0000000000
      6051        91  POPC      H17S          -28.8617020110       16.6883824630        3.7179039190  MEMB      39              0.0000000000
      6052        91  POPC      C218          -30.0801888951       15.3869647324        2.4612902794  MEMB      39              0.0000000000
      6053        91  POPC      H18R          -29.9130137053       14.4543862873        1.8767981516  MEMB      39              0.0000000000
      6054        91  POPC      H18S          -30.5220859270       16.1501244453        1.7898567214  MEMB      39              0.0000000000
      6055        91  POPC      H18T          -30.8048622985       15.1501744815        3.2670166968  MEMB      39              0.0000000000
      6056        91  POPC      C33           -30.1205777247       11.8405692382       11.7538938422  MEMB      39              0.0000000000
      6057        91  POPC      H3X           -30.3466450165       11.2761495321       10.8188036564  MEMB      39              0.0000000000
      6058        91  POPC      H3Y           -30.6334130037       11.3112956061       12.5872938734  MEMB      39              0.0000000000
      6059        91  POPC      C34           -28.6009398645       11.8064111584       11.9573550768  MEMB      39              0.0000000000
      6060        91  POPC      H4X           -28.2783815217       12.5331302286       12.7336410505  MEMB      39              0.0000000000
      6061        91  POPC      H4Y           -28.1339235502       12.1256768419       10.9998604513  MEMB      39              0.0000000000
      6062        91  POPC      C35           -28.0632228987       10.4409602037       12.3986560519  MEMB      39              0.0000000000
      6063        91  POPC      H5X           -28.3514621739        9.6735773369       11.6521785951  MEMB      39              0.0000000000
      6064        91  POPC      H5Y           -28.5352648802       10.1434904543       13.3609833153  MEMB      39              0.0000000000
      6065        91  POPC      C36           -26.5371470126       10.4419651162       12.5846356383  MEMB      39              0.0000000000
      6066        91  POPC      H6X           -26.1831701935        9.3928431730       12.6809076646  MEMB      39              0.0000000000
      6067        91  POPC      H6Y           -26.2873232353       10.9511407741       13.5394869692  MEMB      39              0.0000000000
      6068        91  POPC      C37           -25.7792668634       11.1410029619       11.4486530909  MEMB      39              0.0000000000
      6069        91  POPC      H7X           -25.9894721332       12.2342829895       11.4949006514  MEMB      39              0.0000000000
      6070        91  POPC      H7Y           -26.1380639729       10.7683847641       10.4664626154  MEMB      39              0.0000000000
      6071        91  POPC      C38           -24.2623551565       10.9497089369       11.5210954746  MEMB      39              0.0000000000
      6072        91  POPC      H8X           -24.0009229286        9.9283565447       11.1607111223  MEMB      39              0.0000000000
      6073        91  POPC      H8Y           -23.9312895529       11.0356712994       12.5803270256  MEMB      39              0.0000000000
      6074        91  POPC      C39           -23.5227882525       12.0028528074       10.6910841441  MEMB      39              0.0000000000
      6075        91  POPC      H9X           -22.4277051257       11.8222116088       10.7827133040  MEMB      39              0.0000000000
      6076        91  POPC      H9Y           -23.7375306466       13.0171803069       11.0980004299  MEMB      39              0.0000000000
      6077        91  POPC      C310          -23.9136811527       11.9883973432        9.2098841015  MEMB      39              0.0000000000
      6078        91  POPC      H10X          -24.9461402689       12.3883225564        9.0862354500  MEMB      39              0.0000000000
      6079        91  POPC      H10Y          -23.9134625743       10.9377815760        8.8405875334  MEMB      39              0.0000000000
      6080        91  POPC      C311          -22.9342757020       12.8087651757        8.3701619700  MEMB      39              0.0000000000
      6081        91  POPC      H11X          -21.9002394017       12.4448203905        8.5669137081  MEMB      39              0.0000000000
      6082        91  POPC      H11Y          -22.9747072768       13.8781843504        8.6794702466  MEMB      39              0.0000000000
      6083        91  POPC      C312          -23.2135201164       12.6966816765        6.8700537988  MEMB      39              0.0000000000
      6084        91  POPC      H12X          -23.3186781568       11.6310030336        6.5715446291  MEMB      39              0.0000000000
      6085        91  POPC      H12Y          -22.3313726081       13.0952221551        6.3279201919  MEMB      39              0.0000000000
      6086        91  POPC      C313          -24.4587136899       13.4812172674        6.4515783446  MEMB      39              0.0000000000
      6087        91  POPC      H13X          -24.4016776749       14.5116420919        6.8731942791  MEMB      39              0.0000000000
      6088        91  POPC      H13Y          -25.3675576359       13.0014599842        6.8800915798  MEMB      39              0.0000000000
      6089        91  POPC      C314          -24.6067342993       13.5858614036        4.9311733088  MEMB      39              0.0000000000
      6090        91  POPC      H14X          -25.5450597896       14.1281042053        4.7404517426  MEMB      39              0.0000000000
      6091        91  POPC      H14Y          -24.7023743610       12.5747605107        4.4783612875  MEMB      39              0.0000000000
      6092        91  POPC      C315          -23.4715776596       14.3640607504        4.2567077824  MEMB      39              0.0000000000
      6093        91  POPC      H15X          -22.5496507356       13.7516927615        4.3138467365  MEMB      39              0.0000000000
      6094        91  POPC      H15Y          -23.2898344173       15.3063892566        4.8230169886  MEMB      39              0.0000000000
      6095        91  POPC      C316          -23.7319161315       14.7030959478        2.7900681150  MEMB      39              0.0000000000
      6096        91  POPC      H16X          -23.9831923079       13.7829661577        2.2208822010  MEMB      39              0.0000000000
      6097        91  POPC      H16Y          -22.8286198195       15.1620508698        2.3328785234  MEMB      39              0.0000000000
      6098        91  POPC      H16Z          -24.5731233060       15.4229027017        2.6958464616  MEMB      39              0.0000000000
      6099        92  POPC      N              24.5820473046      -15.2969073652       18.5975669795  MEMB      40              0.0000000000
      6100        92  POPC      C12            25.5928029166      -16.4308400969       18.6797292507  MEMB      40              0.0000000000
      6101        92  POPC      H12A           26.4930554868      -16.1374929011       18.1551358368  MEMB      40              0.0000000000
      6102        92  POPC      H12B           25.1749698178      -17.2731837577       18.1152161993  MEMB      40              0.0000000000
      6103        92  POPC      C13            24.9831483701      -14.1520679860       19.4555223492  MEMB      40              0.0000000000
      6104        92  POPC      H13A           25.8991730185      -13.7004365848       19.0924477972  MEMB      40              0.0000000000
      6105        92  POPC      H13B           24.2222699872      -13.3797757278       19.4743801182  MEMB      40              0.0000000000
      6106        92  POPC      H13C           25.1481625161      -14.4912866720       20.4733159649  MEMB      40              0.0000000000
      6107        92  POPC      C14            24.5035147867      -14.8516863954       17.1645080756  MEMB      40              0.0000000000
      6108        92  POPC      H14A           24.2814087302      -15.6965672506       16.5164531643  MEMB      40              0.0000000000
      6109        92  POPC      H14B           23.7104968721      -14.1257639054       17.0321544513  MEMB      40              0.0000000000
      6110        92  POPC      H14C           25.4363222281      -14.4095699614       16.8240671101  MEMB      40              0.0000000000
      6111        92  POPC      C15            23.2496718762      -15.8482015573       19.0253835484  MEMB      40              0.0000000000
      6112        92  POPC      H15A           22.8847311200      -16.5568044236       18.2890485724  MEMB      40              0.0000000000
      6113        92  POPC      H15B           22.4887158990      -15.1036844234       19.1952453421  MEMB      40              0.0000000000
      6114        92  POPC      H15C           23.3786506827      -16.4381088914       19.9374266955  MEMB      40              0.0000000000
      6115        92  POPC      C11            25.9955911108      -16.9864241903       20.0770615844  MEMB      40              0.0000000000
      6116        92  POPC      H11A           26.3804884501      -16.1463206927       20.6899700134  MEMB      40              0.0000000000
      6117        92  POPC      H11B           26.8647574303      -17.6780955660       19.9349007078  MEMB      40              0.0000000000
      6118        92  POPC      P              24.5273392873      -19.1216121308       20.4277831302  MEMB      40              0.0000000000
      6119        92  POPC      O13            23.1892776471      -19.4447676940       20.9819814334  MEMB      40              0.0000000000
      6120        92  POPC      O14            25.6717587150      -20.0082249736       20.7538266230  MEMB      40              0.0000000000
      6121        92  POPC      O12            24.9145925658      -17.6192413164       20.7851746330  MEMB      40              0.0000000000
      6122        92  POPC      O11            24.4267806230      -18.9504643239       18.8504656600  MEMB      40              0.0000000000
      6123        92  POPC      C1             25.0342004299      -19.9107605910       18.0028655136  MEMB      40              0.0000000000
      6124        92  POPC      HA             24.5250692367      -20.8967329164       18.1012400660  MEMB      40              0.0000000000
      6125        92  POPC      HB             26.0993380181      -20.0813793823       18.2747721159  MEMB      40              0.0000000000
      6126        92  POPC      C2             24.9210535901      -19.4671278087       16.5213318252  MEMB      40              0.0000000000
      6127        92  POPC      HS             25.3346355453      -20.3027933466       15.9073920763  MEMB      40              0.0000000000
      6128        92  POPC      O21            25.6167369957      -18.2423764033       16.2168277472  MEMB      40              0.0000000000
      6129        92  POPC      C21            26.9331295663      -18.3197543634       16.2122119926  MEMB      40              0.0000000000
      6130        92  POPC      O22            27.6266068393      -19.0492816927       16.8874629498  MEMB      40              0.0000000000
      6131        92  POPC      C22            27.4378731431      -17.4290982726       15.0884017277  MEMB      40              0.0000000000
      6132        92  POPC      H2R            28.2104899010      -16.7515987290       15.5039067776  MEMB      40              0.0000000000
      6133        92  POPC      H2S            26.6066135022      -16.8159702380       14.6814061089  MEMB      40              0.0000000000
      6134        92  POPC      C3             23.4502258594      -19.2884206271       16.0689171246  MEMB      40              0.0000000000
      6135        92  POPC      HX             23.1813840230      -18.2073627206       16.0300345020  MEMB      40              0.0000000000
      6136        92  POPC      HY             22.7796258894      -19.7464309382       16.8288319360  MEMB      40              0.0000000000
      6137        92  POPC      O31            23.2454917672      -19.9697246183       14.8194780771  MEMB      40              0.0000000000
      6138        92  POPC      C31            23.4310420388      -19.2735841291       13.6937604116  MEMB      40              0.0000000000
      6139        92  POPC      O32            23.7205098121      -18.0958111392       13.6258769805  MEMB      40              0.0000000000
      6140        92  POPC      C32            23.2003426249      -20.2195535451       12.4980714478  MEMB      40              0.0000000000
      6141        92  POPC      H2X            22.3769584264      -20.9063525369       12.7874775748  MEMB      40              0.0000000000
      6142        92  POPC      H2Y            24.1242567841      -20.8142449968       12.3496846076  MEMB      40              0.0000000000
      6143        92  POPC      C23            28.0389833352      -18.3223995010       13.9941260528  MEMB      40              0.0000000000
      6144        92  POPC      H3R            28.0244765300      -19.3933250274       14.2616714195  MEMB      40              0.0000000000
      6145        92  POPC      H3S            29.1155900431      -18.0789117986       13.8805423702  MEMB      40              0.0000000000
      6146        92  POPC      C24            27.3513503598      -18.2465143544       12.6348060926  MEMB      40              0.0000000000
      6147        92  POPC      H4R            26.4365048616      -17.6185574975       12.6407413611  MEMB      40              0.0000000000
      6148        92  POPC      H4S            27.0340273342      -19.2808159092       12.3623176192  MEMB      40              0.0000000000
      6149        92  POPC      C25            28.3690407402      -17.7538234435       11.6100602641  MEMB      40              0.0000000000
      6150        92  POPC      H5R            29.2730939980      -18.3999553581       11.6960220411  MEMB      40              0.0000000000
      6151        92  POPC      H5S            28.6617474653      -16.7097437162       11.8579774181  MEMB      40              0.0000000000
      6152        92  POPC      C26            27.8965474382      -17.8589616535       10.1674450153  MEMB      40              0.0000000000
      6153        92  POPC      H6R            28.6974197477      -17.4394196354        9.5172353022  MEMB      40              0.0000000000
      6154        92  POPC      H6S            26.9786959015      -17.2464747044       10.0312361770  MEMB      40              0.0000000000
      6155        92  POPC      C27            27.6170772819      -19.3100334551        9.7538253620  MEMB      40              0.0000000000
      6156        92  POPC      H7R            26.7561677054      -19.6907396768       10.3396567212  MEMB      40              0.0000000000
      6157        92  POPC      H7S            28.4807634581      -19.9600942060       10.0248030820  MEMB      40              0.0000000000
      6158        92  POPC      C28            27.2793020247      -19.4158200926        8.2641383165  MEMB      40              0.0000000000
      6159        92  POPC      H8R            26.5605994992      -18.5996130106        8.0234353939  MEMB      40              0.0000000000
      6160        92  POPC      H8S            26.7487791420      -20.3739809370        8.0766737086  MEMB      40              0.0000000000
      6161        92  POPC      C29            28.5543407490      -19.3481330424        7.4663277323  MEMB      40              0.0000000000
      6162        92  POPC      H91            29.3785586322      -19.9646736123        7.8584159694  MEMB      40              0.0000000000
      6163        92  POPC      C210           28.7723703545      -18.5762029886        6.3953994364  MEMB      40              0.0000000000
      6164        92  POPC      H101           29.7629968194      -18.5894399621        5.9150501971  MEMB      40              0.0000000000
      6165        92  POPC      C211           27.7779346424      -17.6310817133        5.7896478994  MEMB      40              0.0000000000
      6166        92  POPC      H11R           28.3366696970      -16.8287166436        5.2683418448  MEMB      40              0.0000000000
      6167        92  POPC      H11S           27.1565010774      -17.1188871795        6.5592223159  MEMB      40              0.0000000000
      6168        92  POPC      C212           26.8422317129      -18.2774574980        4.7580584749  MEMB      40              0.0000000000
      6169        92  POPC      H12R           26.1615776963      -19.0134552149        5.2357750996  MEMB      40              0.0000000000
      6170        92  POPC      H12S           27.4296920577      -18.8211167939        3.9924493951  MEMB      40              0.0000000000
      6171        92  POPC      C213           26.0476817205      -17.1838999545        4.0520055177  MEMB      40              0.0000000000
      6172        92  POPC      H13R           26.5466161684      -16.2226690884        4.2954590073  MEMB      40              0.0000000000
      6173        92  POPC      H13S           25.0142319131      -17.1278982596        4.4506043415  MEMB      40              0.0000000000
      6174        92  POPC      C214           26.0368035116      -17.2730966390        2.5276381271  MEMB      40              0.0000000000
      6175        92  POPC      H14R           25.2641903637      -18.0072954989        2.2294285991  MEMB      40              0.0000000000
      6176        92  POPC      H14S           27.0160187190      -17.6369739377        2.1517800893  MEMB      40              0.0000000000
      6177        92  POPC      C215           25.7406653587      -15.9071989227        1.9039046801  MEMB      40              0.0000000000
      6178        92  POPC      H15R           25.7318429020      -15.9922452995        0.7957779763  MEMB      40              0.0000000000
      6179        92  POPC      H15S           26.5574072504      -15.1972882986        2.1652001961  MEMB      40              0.0000000000
      6180        92  POPC      C216           24.4026976091      -15.3406746434        2.3877991281  MEMB      40              0.0000000000
      6181        92  POPC      H16R           23.8439723425      -16.0787758456        3.0014187767  MEMB      40              0.0000000000
      6182        92  POPC      H16S           23.7715486624      -15.1515781790        1.4880367700  MEMB      40              0.0000000000
      6183        92  POPC      C217           24.5268388877      -14.0163614747        3.1531572569  MEMB      40              0.0000000000
      6184        92  POPC      H17R           23.4948214305      -13.6823357453        3.3704287074  MEMB      40              0.0000000000
      6185        92  POPC      H17S           24.9851823300      -13.3047392656        2.4436836000  MEMB      40              0.0000000000
      6186        92  POPC      C218           25.3257560631      -13.9401504937        4.4586562482  MEMB      40              0.0000000000
      6187        92  POPC      H18R           26.4144588160      -14.0444816182        4.2650077800  MEMB      40              0.0000000000
      6188        92  POPC      H18S           25.0004117308      -14.7215794506        5.1758833836  MEMB      40              0.0000000000
      6189        92  POPC      H18T           25.1654998441      -12.9476612455        4.9356997814  MEMB      40              0.0000000000
      6190        92  POPC      C33            22.8022337601      -19.5094276539       11.1725319611  MEMB      40              0.0000000000
      6191        92  POPC      H3X            22.0473318755      -18.7176999382       11.3749590640  MEMB      40              0.0000000000
      6192        92  POPC      H3Y            22.3255035681      -20.2580488110       10.4980879139  MEMB      40              0.0000000000
      6193        92  POPC      C34            24.0103074850      -18.9254411813       10.4249904623  MEMB      40              0.0000000000
      6194        92  POPC      H4X            24.6958264962      -19.7503837299       10.1365029578  MEMB      40              0.0000000000
      6195        92  POPC      H4Y            24.5632520646      -18.2573421310       11.1270154221  MEMB      40              0.0000000000
      6196        92  POPC      C35            23.6800339861      -18.0983213359        9.1711091674  MEMB      40              0.0000000000
      6197        92  POPC      H5X            24.6072677291      -17.5433470566        8.8914257686  MEMB      40              0.0000000000
      6198        92  POPC      H5Y            22.9095758996      -17.3347060539        9.4160155687  MEMB      40              0.0000000000
      6199        92  POPC      C36            23.2420517606      -18.9122486888        7.9394420656  MEMB      40              0.0000000000
      6200        92  POPC      H6X            22.1686617212      -19.1799047815        8.0549843724  MEMB      40              0.0000000000
      6201        92  POPC      H6Y            23.8274224534      -19.8551782237        7.8653707096  MEMB      40              0.0000000000
      6202        92  POPC      C37            23.4508410628      -18.1041727028        6.6457646318  MEMB      40              0.0000000000
      6203        92  POPC      H7X            24.5247180508      -18.0887341750        6.3742127359  MEMB      40              0.0000000000
      6204        92  POPC      H7Y            23.1638442667      -17.0509419754        6.8799410646  MEMB      40              0.0000000000
      6205        92  POPC      C38            22.5833089448      -18.5291440225        5.4514652122  MEMB      40              0.0000000000
      6206        92  POPC      H8X            22.3883686065      -17.6173218124        4.8391766590  MEMB      40              0.0000000000
      6207        92  POPC      H8Y            21.6096901960      -18.8895377696        5.8227879174  MEMB      40              0.0000000000
      6208        92  POPC      C39            23.1340450206      -19.5947806896        4.4947307094  MEMB      40              0.0000000000
      6209        92  POPC      H9X            23.3668018344      -20.5310341485        5.0456996318  MEMB      40              0.0000000000
      6210        92  POPC      H9Y            24.0746772468      -19.2206694186        4.0395324453  MEMB      40              0.0000000000
      6211        92  POPC      C310           22.0910728336      -19.8705369962        3.3934225762  MEMB      40              0.0000000000
      6212        92  POPC      H10X           21.8009656879      -18.9012425495        2.9275402555  MEMB      40              0.0000000000
      6213        92  POPC      H10Y           21.1746778147      -20.2853109615        3.8724929623  MEMB      40              0.0000000000
      6214        92  POPC      C311           22.5399689557      -20.8306784899        2.2842295688  MEMB      40              0.0000000000
      6215        92  POPC      H11X           21.6722151803      -21.0052403209        1.6057240240  MEMB      40              0.0000000000
      6216        92  POPC      H11Y           22.8094533253      -21.8082721798        2.7400613679  MEMB      40              0.0000000000
      6217        92  POPC      C312           23.7150695606      -20.3091576377        1.4418917128  MEMB      40              0.0000000000
      6218        92  POPC      H12X           24.0213975708      -21.1048017473        0.7269528006  MEMB      40              0.0000000000
      6219        92  POPC      H12Y           24.5851815901      -20.1080647734        2.0995384262  MEMB      40              0.0000000000
      6220        92  POPC      C313           23.3853388291      -19.0378714616        0.6411903022  MEMB      40              0.0000000000
      6221        92  POPC      H13X           23.2505732106      -18.1814301564        1.3390162299  MEMB      40              0.0000000000
      6222        92  POPC      H13Y           22.4215396384      -19.1891157922        0.1083094976  MEMB      40              0.0000000000
      6223        92  POPC      C314           24.4840882955      -18.6983857043       -0.3774249250  MEMB      40              0.0000000000
      6224        92  POPC      H14X           24.5937576913      -19.5575397757       -1.0688207939  MEMB      40              0.0000000000
      6225        92  POPC      H14Y           25.4579116651      -18.5819049286        0.1449136811  MEMB      40              0.0000000000
      6226        92  POPC      C315           24.2028719779      -17.4360729263       -1.2003757615  MEMB      40              0.0000000000
      6227        92  POPC      H15X           25.1302463504      -17.1620819982       -1.7561078409  MEMB      40              0.0000000000
      6228        92  POPC      H15Y           23.9625035001      -16.5951609685       -0.5113334538  MEMB      40              0.0000000000
      6229        92  POPC      C316           23.0665889017      -17.6086706831       -2.2066993675  MEMB      40              0.0000000000
      6230        92  POPC      H16X           22.0901254980      -17.7124806076       -1.6860152683  MEMB      40              0.0000000000
      6231        92  POPC      H16Y           23.2305591794      -18.5133465836       -2.8319968706  MEMB      40              0.0000000000
      6232        92  POPC      H16Z           23.0202568733      -16.7243453162       -2.8759175355  MEMB      40              0.0000000000
      6233        93  POPC      N             -18.6405240965       28.2551249515       20.4542362505  MEMB      41              0.0000000000
      6234        93  POPC      C12           -18.3824862469       29.1152334666       19.2217762696  MEMB      41              0.0000000000
      6235        93  POPC      H12A          -19.2208966812       29.7721225619       19.0365210377  MEMB      41              0.0000000000
      6236        93  POPC      H12B          -18.3202676407       28.4501302139       18.3675799884  MEMB      41              0.0000000000
      6237        93  POPC      C13           -18.4078317883       29.0227752759       21.7195084860  MEMB      41              0.0000000000
      6238        93  POPC      H13A          -19.1939567734       29.7429424064       21.8836921479  MEMB      41              0.0000000000
      6239        93  POPC      H13B          -18.3695683840       28.3764151298       22.5897311090  MEMB      41              0.0000000000
      6240        93  POPC      H13C          -17.4456867591       29.5359057698       21.6856275818  MEMB      41              0.0000000000
      6241        93  POPC      C14           -20.0374917954       27.7075251519       20.4622271950  MEMB      41              0.0000000000
      6242        93  POPC      H14A          -20.1234744930       26.9032878361       21.2011768616  MEMB      41              0.0000000000
      6243        93  POPC      H14B          -20.7664525500       28.4708586700       20.6996634807  MEMB      41              0.0000000000
      6244        93  POPC      H14C          -20.2850341580       27.2255044812       19.5277472269  MEMB      41              0.0000000000
      6245        93  POPC      C15           -17.6768497188       27.1047625855       20.4554110980  MEMB      41              0.0000000000
      6246        93  POPC      H15A          -17.7997065832       26.4805947325       19.5807461905  MEMB      41              0.0000000000
      6247        93  POPC      H15B          -17.8208752929       26.4580216136       21.3144797748  MEMB      41              0.0000000000
      6248        93  POPC      H15C          -16.6580986675       27.4965822681       20.4314256192  MEMB      41              0.0000000000
      6249        93  POPC      C11           -17.0905215582       29.9758517171       19.1774327243  MEMB      41              0.0000000000
      6250        93  POPC      H11A          -17.1565322433       30.7951960533       19.9303684376  MEMB      41              0.0000000000
      6251        93  POPC      H11B          -17.0487223962       30.4595868124       18.1680421758  MEMB      41              0.0000000000
      6252        93  POPC      P             -14.5008061513       29.7949464975       19.0951059243  MEMB      41              0.0000000000
      6253        93  POPC      O13           -13.4646503812       28.7363021134       19.1901624359  MEMB      41              0.0000000000
      6254        93  POPC      O14           -14.3033608925       30.9623526941       19.9936138271  MEMB      41              0.0000000000
      6255        93  POPC      O12           -15.9343935209       29.1673362856       19.4124785518  MEMB      41              0.0000000000
      6256        93  POPC      O11           -14.6588265019       30.2542429274       17.5701186070  MEMB      41              0.0000000000
      6257        93  POPC      C1            -14.7548654476       29.2064464094       16.5865330684  MEMB      41              0.0000000000
      6258        93  POPC      HA            -15.5957328746       28.5073755147       16.8102275806  MEMB      41              0.0000000000
      6259        93  POPC      HB            -13.8064570915       28.6164296886       16.5809105038  MEMB      41              0.0000000000
      6260        93  POPC      C2            -14.9610648354       29.6946432564       15.1103446979  MEMB      41              0.0000000000
      6261        93  POPC      HS            -14.1830623941       30.4610713500       14.8922222210  MEMB      41              0.0000000000
      6262        93  POPC      O21           -16.2908883901       30.2353475613       14.9242285602  MEMB      41              0.0000000000
      6263        93  POPC      C21           -16.4784659605       31.0074721542       13.8448863466  MEMB      41              0.0000000000
      6264        93  POPC      O22           -15.6322127870       31.3694687094       13.0514154621  MEMB      41              0.0000000000
      6265        93  POPC      C22           -17.9385614842       31.4226419589       13.7881655289  MEMB      41              0.0000000000
      6266        93  POPC      H2R           -18.0222120189       32.3202795132       13.1431139784  MEMB      41              0.0000000000
      6267        93  POPC      H2S           -18.2372237544       31.7119362069       14.8162377304  MEMB      41              0.0000000000
      6268        93  POPC      C3            -14.7357338750       28.4596167349       14.1806045515  MEMB      41              0.0000000000
      6269        93  POPC      HX            -15.3579832814       27.6243891635       14.5722623571  MEMB      41              0.0000000000
      6270        93  POPC      HY            -13.6622667659       28.1719599355       14.2795380521  MEMB      41              0.0000000000
      6271        93  POPC      O31           -15.0844373357       28.7381767812       12.8134091787  MEMB      41              0.0000000000
      6272        93  POPC      C31           -14.5870539172       27.9073357639       11.9269612848  MEMB      41              0.0000000000
      6273        93  POPC      O32           -14.0407821489       26.8471202604       12.1734991857  MEMB      41              0.0000000000
      6274        93  POPC      C32           -14.7170260338       28.5363874865       10.5396484335  MEMB      41              0.0000000000
      6275        93  POPC      H2X           -13.6753844958       28.6347521804       10.1664038871  MEMB      41              0.0000000000
      6276        93  POPC      H2Y           -15.1587014441       29.5506373324       10.6208312311  MEMB      41              0.0000000000
      6277        93  POPC      C23           -18.8611187427       30.2952033395       13.2816874375  MEMB      41              0.0000000000
      6278        93  POPC      H3R           -19.8795236659       30.5343491078       13.6640197617  MEMB      41              0.0000000000
      6279        93  POPC      H3S           -18.5739951392       29.3022446281       13.6885635322  MEMB      41              0.0000000000
      6280        93  POPC      C24           -18.9949974388       30.2502506503       11.7557198403  MEMB      41              0.0000000000
      6281        93  POPC      H4R           -18.1611256663       29.6667427629       11.3122087914  MEMB      41              0.0000000000
      6282        93  POPC      H4S           -18.9257713181       31.2900822925       11.3586383681  MEMB      41              0.0000000000
      6283        93  POPC      C25           -20.3629351920       29.6959246403       11.3188469170  MEMB      41              0.0000000000
      6284        93  POPC      H5R           -21.1449585818       30.3192318533       11.8137165672  MEMB      41              0.0000000000
      6285        93  POPC      H5S           -20.4892842232       28.6484109088       11.6683306124  MEMB      41              0.0000000000
      6286        93  POPC      C26           -20.5717077414       29.7769173698        9.8060061676  MEMB      41              0.0000000000
      6287        93  POPC      H6R           -20.1834915657       30.7541210887        9.4403426466  MEMB      41              0.0000000000
      6288        93  POPC      H6S           -21.6605983446       29.7518690465        9.5746108478  MEMB      41              0.0000000000
      6289        93  POPC      C27           -19.9100416690       28.6183082939        9.0488623557  MEMB      41              0.0000000000
      6290        93  POPC      H7R           -20.4947937604       27.6911604515        9.2456819520  MEMB      41              0.0000000000
      6291        93  POPC      H7S           -18.8815681426       28.4419302696        9.4362002572  MEMB      41              0.0000000000
      6292        93  POPC      C28           -19.8672606672       28.8749108840        7.5371329387  MEMB      41              0.0000000000
      6293        93  POPC      H8R           -20.8372508402       29.3271931462        7.2259093949  MEMB      41              0.0000000000
      6294        93  POPC      H8S           -19.7799537044       27.8934269427        7.0177101521  MEMB      41              0.0000000000
      6295        93  POPC      C29           -18.7164204205       29.7885113984        7.1962664544  MEMB      41              0.0000000000
      6296        93  POPC      H91           -18.5230926424       30.5979710365        7.9201156926  MEMB      41              0.0000000000
      6297        93  POPC      C210          -17.9473922050       29.6998806227        6.0994568243  MEMB      41              0.0000000000
      6298        93  POPC      H101          -17.1707084780       30.4625095589        5.9289491998  MEMB      41              0.0000000000
      6299        93  POPC      C211          -18.1008509595       28.6741058123        5.0056652975  MEMB      41              0.0000000000
      6300        93  POPC      H11R          -18.0579175667       27.6405728529        5.4169035874  MEMB      41              0.0000000000
      6301        93  POPC      H11S          -17.2494285130       28.7607167883        4.2958215712  MEMB      41              0.0000000000
      6302        93  POPC      C212          -19.4118884133       28.8483117432        4.2055838046  MEMB      41              0.0000000000
      6303        93  POPC      H12R          -20.2735910431       28.5098828519        4.8233186652  MEMB      41              0.0000000000
      6304        93  POPC      H12S          -19.3725898872       28.1833254120        3.3152375602  MEMB      41              0.0000000000
      6305        93  POPC      C213          -19.6894827547       30.2967620377        3.7567223814  MEMB      41              0.0000000000
      6306        93  POPC      H13R          -19.7927567205       30.9354653583        4.6615491590  MEMB      41              0.0000000000
      6307        93  POPC      H13S          -20.6766968469       30.3416864879        3.2484557127  MEMB      41              0.0000000000
      6308        93  POPC      C214          -18.6016239273       30.8921614812        2.8431791938  MEMB      41              0.0000000000
      6309        93  POPC      H14R          -17.6325736288       30.9321960246        3.3877079141  MEMB      41              0.0000000000
      6310        93  POPC      H14S          -18.8657025394       31.9383610826        2.5819149362  MEMB      41              0.0000000000
      6311        93  POPC      C215          -18.4130938250       30.1448960197        1.5188271055  MEMB      41              0.0000000000
      6312        93  POPC      H15R          -17.9113020058       29.1765123559        1.7318564011  MEMB      41              0.0000000000
      6313        93  POPC      H15S          -17.7343749560       30.7449335449        0.8733687124  MEMB      41              0.0000000000
      6314        93  POPC      C216          -19.7331794592       29.9190576363        0.7688734907  MEMB      41              0.0000000000
      6315        93  POPC      H16R          -20.2254902789       30.9035735604        0.6015921073  MEMB      41              0.0000000000
      6316        93  POPC      H16S          -20.4159614398       29.3078635040        1.3984494739  MEMB      41              0.0000000000
      6317        93  POPC      C217          -19.5672814975       29.1926090589       -0.5687185241  MEMB      41              0.0000000000
      6318        93  POPC      H17R          -19.0041794586       29.8460006043       -1.2724923056  MEMB      41              0.0000000000
      6319        93  POPC      H17S          -20.5804518632       29.0329565654       -1.0037826812  MEMB      41              0.0000000000
      6320        93  POPC      C218          -18.8442578489       27.8495984737       -0.4665033462  MEMB      41              0.0000000000
      6321        93  POPC      H18R          -19.3883594367       27.0697094924       -1.0354822377  MEMB      41              0.0000000000
      6322        93  POPC      H18S          -18.7719969019       27.5047099120        0.5867613410  MEMB      41              0.0000000000
      6323        93  POPC      H18T          -17.8211174931       27.9402557225       -0.8868450316  MEMB      41              0.0000000000
      6324        93  POPC      C33           -15.5311966837       27.6699243268        9.5587603719  MEMB      41              0.0000000000
      6325        93  POPC      H3X           -16.6214501652       27.8717657102        9.6500100692  MEMB      41              0.0000000000
      6326        93  POPC      H3Y           -15.3539403292       26.5995305122        9.8166396849  MEMB      41              0.0000000000
      6327        93  POPC      C34           -15.0938767871       27.8382598244        8.0993539037  MEMB      41              0.0000000000
      6328        93  POPC      H4X           -14.0043221105       28.0685705632        8.0782164667  MEMB      41              0.0000000000
      6329        93  POPC      H4Y           -15.6221903576       28.6872029703        7.6136910110  MEMB      41              0.0000000000
      6330        93  POPC      C35           -15.3044251265       26.5422876502        7.3097070143  MEMB      41              0.0000000000
      6331        93  POPC      H5X           -16.3883436617       26.3717518698        7.1221430696  MEMB      41              0.0000000000
      6332        93  POPC      H5Y           -14.9362071441       25.6913222148        7.9269028559  MEMB      41              0.0000000000
      6333        93  POPC      C36           -14.5279074110       26.5338334942        5.9926866719  MEMB      41              0.0000000000
      6334        93  POPC      H6X           -13.6974962444       27.2730099441        6.0295751204  MEMB      41              0.0000000000
      6335        93  POPC      H6Y           -15.2307219466       26.8677849463        5.1982238499  MEMB      41              0.0000000000
      6336        93  POPC      C37           -13.9051293884       25.1649988569        5.6747693657  MEMB      41              0.0000000000
      6337        93  POPC      H7X           -14.7060206700       24.3972119814        5.7202749089  MEMB      41              0.0000000000
      6338        93  POPC      H7Y           -13.1592779604       24.8927842640        6.4535840427  MEMB      41              0.0000000000
      6339        93  POPC      C38           -13.2441374668       25.1236002530        4.2879335622  MEMB      41              0.0000000000
      6340        93  POPC      H8X           -12.9446471864       24.0799100210        4.0561942230  MEMB      41              0.0000000000
      6341        93  POPC      H8Y           -12.3204991200       25.7431917642        4.2952352213  MEMB      41              0.0000000000
      6342        93  POPC      C39           -14.2076925308       25.6563512381        3.2212238341  MEMB      41              0.0000000000
      6343        93  POPC      H9X           -14.1690330596       26.7673299407        3.2746059864  MEMB      41              0.0000000000
      6344        93  POPC      H9Y           -15.2409337561       25.3304379221        3.4860530199  MEMB      41              0.0000000000
      6345        93  POPC      C310          -13.9525632791       25.2042036951        1.7831781183  MEMB      41              0.0000000000
      6346        93  POPC      H10X          -13.9709163929       24.0904846474        1.7551820374  MEMB      41              0.0000000000
      6347        93  POPC      H10Y          -12.9482528386       25.5491923364        1.4530668788  MEMB      41              0.0000000000
      6348        93  POPC      C311          -15.0331889234       25.7021533608        0.8048900777  MEMB      41              0.0000000000
      6349        93  POPC      H11X          -15.9203011635       25.0385412186        0.9156139260  MEMB      41              0.0000000000
      6350        93  POPC      H11Y          -14.6629775154       25.5866177347       -0.2377122695  MEMB      41              0.0000000000
      6351        93  POPC      C312          -15.5007763481       27.1515386853        1.0342458489  MEMB      41              0.0000000000
      6352        93  POPC      H12X          -15.8081416865       27.3054133228        2.0892702940  MEMB      41              0.0000000000
      6353        93  POPC      H12Y          -16.4172664740       27.3050691756        0.4355059599  MEMB      41              0.0000000000
      6354        93  POPC      C313          -14.4607958346       28.1909934401        0.5973903495  MEMB      41              0.0000000000
      6355        93  POPC      H13X          -14.4040660866       28.1489807444       -0.5130058443  MEMB      41              0.0000000000
      6356        93  POPC      H13Y          -13.4636501449       27.9081745153        0.9999878003  MEMB      41              0.0000000000
      6357        93  POPC      C314          -14.7618878722       29.6451122816        1.0051826153  MEMB      41              0.0000000000
      6358        93  POPC      H14X          -15.7740257097       29.9341225330        0.6591106828  MEMB      41              0.0000000000
      6359        93  POPC      H14Y          -14.0400251073       30.2980682500        0.4672900522  MEMB      41              0.0000000000
      6360        93  POPC      C315          -14.6117335897       29.9236563684        2.5086709127  MEMB      41              0.0000000000
      6361        93  POPC      H15X          -13.6998007197       29.3967157206        2.8710152148  MEMB      41              0.0000000000
      6362        93  POPC      H15Y          -15.4809516719       29.4842476879        3.0474361284  MEMB      41              0.0000000000
      6363        93  POPC      C316          -14.4860326618       31.4135641912        2.8581400768  MEMB      41              0.0000000000
      6364        93  POPC      H16X          -14.2770575921       31.5406104052        3.9427050158  MEMB      41              0.0000000000
      6365        93  POPC      H16Y          -15.4230178227       31.9587816704        2.6138342859  MEMB      41              0.0000000000
      6366        93  POPC      H16Z          -13.6515952031       31.8785620729        2.2870619513  MEMB      41              0.0000000000
      6367        94  POPC      N             -32.7645209294       -9.4970240251       21.1161881956  MEMB      42              0.0000000000
      6368        94  POPC      C12           -32.5243422535      -10.9082200415       20.6098653305  MEMB      42              0.0000000000
      6369        94  POPC      H12A          -33.4516669613      -11.4582413478       20.5548083202  MEMB      42              0.0000000000
      6370        94  POPC      H12B          -31.8712456816      -11.3983557506       21.3267515053  MEMB      42              0.0000000000
      6371        94  POPC      C13           -33.7830007821       -9.4496050320       22.1963629760  MEMB      42              0.0000000000
      6372        94  POPC      H13A          -34.7550462899       -9.7418898373       21.8233414836  MEMB      42              0.0000000000
      6373        94  POPC      H13B          -33.5009311627      -10.0697519884       23.0404750017  MEMB      42              0.0000000000
      6374        94  POPC      H13C          -33.8571059926       -8.4290452810       22.5734788774  MEMB      42              0.0000000000
      6375        94  POPC      C14           -31.4407020691       -8.9879463988       21.6353796946  MEMB      42              0.0000000000
      6376        94  POPC      H14A          -30.7389477059       -8.9604200162       20.7929714822  MEMB      42              0.0000000000
      6377        94  POPC      H14B          -31.5150373162       -8.0058736149       22.0587690037  MEMB      42              0.0000000000
      6378        94  POPC      H14C          -30.9837946597       -9.6606236276       22.3489326105  MEMB      42              0.0000000000
      6379        94  POPC      C15           -33.1794024522       -8.5818322917       19.9979355787  MEMB      42              0.0000000000
      6380        94  POPC      H15A          -34.1470415524       -8.8135752291       19.5804185383  MEMB      42              0.0000000000
      6381        94  POPC      H15B          -32.4453639255       -8.6597738734       19.1851673393  MEMB      42              0.0000000000
      6382        94  POPC      H15C          -33.1490859470       -7.5444233832       20.2956929291  MEMB      42              0.0000000000
      6383        94  POPC      C11           -31.8478206749      -11.0687349725       19.2420816259  MEMB      42              0.0000000000
      6384        94  POPC      H11A          -32.5857992908      -10.7814848242       18.4536203462  MEMB      42              0.0000000000
      6385        94  POPC      H11B          -31.5979258460      -12.1430070114       19.0783277374  MEMB      42              0.0000000000
      6386        94  POPC      P             -30.2671593746       -9.4651169350       17.9372300224  MEMB      42              0.0000000000
      6387        94  POPC      O13           -28.7890726840       -9.4097923554       17.9287348775  MEMB      42              0.0000000000
      6388        94  POPC      O14           -31.0288943809       -8.2000939563       18.0023621530  MEMB      42              0.0000000000
      6389        94  POPC      O12           -30.6509687092      -10.3013798991       19.2036310862  MEMB      42              0.0000000000
      6390        94  POPC      O11           -30.8305042005      -10.4286733812       16.8223629018  MEMB      42              0.0000000000
      6391        94  POPC      C1            -30.0932047788      -11.6351234607       16.6197130011  MEMB      42              0.0000000000
      6392        94  POPC      HA            -30.7972373661      -12.4790061647       16.5573239459  MEMB      42              0.0000000000
      6393        94  POPC      HB            -29.4351311577      -11.9220515241       17.4848601418  MEMB      42              0.0000000000
      6394        94  POPC      C2            -29.1780190998      -11.5147551980       15.3779268437  MEMB      42              0.0000000000
      6395        94  POPC      HS            -28.1697851898      -11.7033331929       15.8228205274  MEMB      42              0.0000000000
      6396        94  POPC      O21           -29.2678846206      -10.2166663041       14.7311761454  MEMB      42              0.0000000000
      6397        94  POPC      C21           -28.1235523695       -9.9432456426       14.1486916268  MEMB      42              0.0000000000
      6398        94  POPC      O22           -27.0577652132      -10.4795978966       14.4033159426  MEMB      42              0.0000000000
      6399        94  POPC      C22           -28.3281028546       -9.0590068879       12.9386310613  MEMB      42              0.0000000000
      6400        94  POPC      H2R           -27.3854980863       -8.4918064726       12.8160534699  MEMB      42              0.0000000000
      6401        94  POPC      H2S           -29.1642569008       -8.3499829603       13.1040882311  MEMB      42              0.0000000000
      6402        94  POPC      C3            -29.4515894280      -12.5953701062       14.2944328482  MEMB      42              0.0000000000
      6403        94  POPC      HX            -29.4145792530      -13.5914178106       14.7775869309  MEMB      42              0.0000000000
      6404        94  POPC      HY            -28.6101348044      -12.5637878584       13.5677459422  MEMB      42              0.0000000000
      6405        94  POPC      O31           -30.6867294363      -12.3449930454       13.5826341872  MEMB      42              0.0000000000
      6406        94  POPC      C31           -31.7538550649      -12.9141496807       14.1193624184  MEMB      42              0.0000000000
      6407        94  POPC      O32           -31.7420935153      -13.8077682049       14.9467202206  MEMB      42              0.0000000000
      6408        94  POPC      C32           -33.0394025556      -12.2570045599       13.6189552184  MEMB      42              0.0000000000
      6409        94  POPC      H2X           -33.8583547164      -12.6142582046       14.2803122391  MEMB      42              0.0000000000
      6410        94  POPC      H2Y           -33.2182979260      -12.6354697012       12.5947357406  MEMB      42              0.0000000000
      6411        94  POPC      C23           -28.5483759278       -9.9517582259       11.6950974914  MEMB      42              0.0000000000
      6412        94  POPC      H3R           -28.6769525848       -9.2746175338       10.8184334246  MEMB      42              0.0000000000
      6413        94  POPC      H3S           -29.5000282386      -10.5227477831       11.7969896240  MEMB      42              0.0000000000
      6414        94  POPC      C24           -27.3755724312      -10.9217947306       11.3967911614  MEMB      42              0.0000000000
      6415        94  POPC      H4R           -27.7130881095      -11.9714963703       11.5468521627  MEMB      42              0.0000000000
      6416        94  POPC      H4S           -26.5147609210      -10.7409040562       12.0755940765  MEMB      42              0.0000000000
      6417        94  POPC      C25           -26.9081205379      -10.7438146078        9.9500447561  MEMB      42              0.0000000000
      6418        94  POPC      H5R           -26.6520346447       -9.6908499418        9.7863917288  MEMB      42              0.0000000000
      6419        94  POPC      H5S           -27.7985755725      -10.9964621406        9.3472201791  MEMB      42              0.0000000000
      6420        94  POPC      C26           -25.6510753755      -11.4661083767        9.4542019742  MEMB      42              0.0000000000
      6421        94  POPC      H6R           -25.7387806431      -12.5527006291        9.6467945323  MEMB      42              0.0000000000
      6422        94  POPC      H6S           -24.7730553459      -11.0875185936       10.0331374056  MEMB      42              0.0000000000
      6423        94  POPC      C27           -25.3699608908      -11.1637996783        7.9553981563  MEMB      42              0.0000000000
      6424        94  POPC      H7R           -24.5551030034      -11.8448726928        7.6176907495  MEMB      42              0.0000000000
      6425        94  POPC      H7S           -24.9940142804      -10.1191931475        7.8747986433  MEMB      42              0.0000000000
      6426        94  POPC      C28           -26.5675066043      -11.3352987907        6.9767833455  MEMB      42              0.0000000000
      6427        94  POPC      H8R           -27.5055797337      -11.4590354846        7.5359281099  MEMB      42              0.0000000000
      6428        94  POPC      H8S           -26.4094859629      -12.3203036001        6.4902998357  MEMB      42              0.0000000000
      6429        94  POPC      C29           -26.8954154351      -10.3450504193        5.8917469180  MEMB      42              0.0000000000
      6430        94  POPC      H91           -27.9120695215       -9.9168053486        5.9267329454  MEMB      42              0.0000000000
      6431        94  POPC      C210          -26.0585905855       -9.9036729919        4.9507283543  MEMB      42              0.0000000000
      6432        94  POPC      H101          -26.4946384475       -9.3816981421        4.0895333160  MEMB      42              0.0000000000
      6433        94  POPC      C211          -24.6214108929      -10.3037128230        4.7942149837  MEMB      42              0.0000000000
      6434        94  POPC      H11R          -24.5057749414      -11.4058428070        4.8109282583  MEMB      42              0.0000000000
      6435        94  POPC      H11S          -24.0563883140       -9.8996645060        5.6647224897  MEMB      42              0.0000000000
      6436        94  POPC      C212          -23.9598716390       -9.7214141982        3.5316117073  MEMB      42              0.0000000000
      6437        94  POPC      H12R          -22.8822685093       -9.9857717091        3.5423010548  MEMB      42              0.0000000000
      6438        94  POPC      H12S          -24.0425013733       -8.6102498450        3.5667875786  MEMB      42              0.0000000000
      6439        94  POPC      C213          -24.5321960357      -10.1849512142        2.1968095558  MEMB      42              0.0000000000
      6440        94  POPC      H13R          -24.5346950913       -9.3104523941        1.5088027963  MEMB      42              0.0000000000
      6441        94  POPC      H13S          -25.5874971735      -10.4880457410        2.3564587417  MEMB      42              0.0000000000
      6442        94  POPC      C214          -23.7232797053      -11.3042650329        1.5223775517  MEMB      42              0.0000000000
      6443        94  POPC      H14R          -23.7488796158      -12.2221949194        2.1450564204  MEMB      42              0.0000000000
      6444        94  POPC      H14S          -22.6543723083      -10.9973218069        1.4616388183  MEMB      42              0.0000000000
      6445        94  POPC      C215          -24.2238137881      -11.6208681692        0.1030541898  MEMB      42              0.0000000000
      6446        94  POPC      H15R          -23.7870394507      -12.5870659541       -0.2337566121  MEMB      42              0.0000000000
      6447        94  POPC      H15S          -23.8290309610      -10.8278906097       -0.5615999534  MEMB      42              0.0000000000
      6448        94  POPC      C216          -25.7560029812      -11.6674212751       -0.0306821265  MEMB      42              0.0000000000
      6449        94  POPC      H16R          -26.2210422456      -10.8091580680        0.4954728685  MEMB      42              0.0000000000
      6450        94  POPC      H16S          -26.1323142079      -12.5778856249        0.4717752065  MEMB      42              0.0000000000
      6451        94  POPC      C217          -26.2962925508      -11.5479005887       -1.4593780022  MEMB      42              0.0000000000
      6452        94  POPC      H17R          -26.7115493013      -12.5276348016       -1.7736008274  MEMB      42              0.0000000000
      6453        94  POPC      H17S          -25.4627674896      -11.3225829651       -2.1567426941  MEMB      42              0.0000000000
      6454        94  POPC      C218          -27.3822299702      -10.4645053436       -1.5738787200  MEMB      42              0.0000000000
      6455        94  POPC      H18R          -27.6452477809      -10.2533055770       -2.6294284153  MEMB      42              0.0000000000
      6456        94  POPC      H18S          -27.0440590230       -9.5136200908       -1.1121476216  MEMB      42              0.0000000000
      6457        94  POPC      H18T          -28.3008387456      -10.7928861598       -1.0475500711  MEMB      42              0.0000000000
      6458        94  POPC      C33           -33.0366440950      -10.7104668194       13.6292301224  MEMB      42              0.0000000000
      6459        94  POPC      H3X           -32.2227704058      -10.3195915013       12.9799755436  MEMB      42              0.0000000000
      6460        94  POPC      H3Y           -32.8304699223      -10.3372107688       14.6618638899  MEMB      42              0.0000000000
      6461        94  POPC      C34           -34.3813229164      -10.1292906523       13.1526468404  MEMB      42              0.0000000000
      6462        94  POPC      H4X           -34.3112190092       -9.0220159663       13.2090906960  MEMB      42              0.0000000000
      6463        94  POPC      H4Y           -35.1691946914      -10.4433169493       13.8739220889  MEMB      42              0.0000000000
      6464        94  POPC      C35           -34.8378780242      -10.5254300383       11.7328390841  MEMB      42              0.0000000000
      6465        94  POPC      H5X           -35.7987830427       -9.9986275338       11.5238483339  MEMB      42              0.0000000000
      6466        94  POPC      H5Y           -35.0376831439      -11.6183261165       11.6836392853  MEMB      42              0.0000000000
      6467        94  POPC      C36           -33.8531266811      -10.1380770866       10.6195177453  MEMB      42              0.0000000000
      6468        94  POPC      H6X           -32.8820545885      -10.6562677963       10.7618826748  MEMB      42              0.0000000000
      6469        94  POPC      H6Y           -33.6744862574       -9.0446385619       10.6943590197  MEMB      42              0.0000000000
      6470        94  POPC      C37           -34.3937311297      -10.4251860176        9.2103482712  MEMB      42              0.0000000000
      6471        94  POPC      H7X           -35.4149846949       -9.9873559644        9.1422435923  MEMB      42              0.0000000000
      6472        94  POPC      H7Y           -34.4869582558      -11.5203854150        9.0445349922  MEMB      42              0.0000000000
      6473        94  POPC      C38           -33.5384087738       -9.8044720859        8.0927085602  MEMB      42              0.0000000000
      6474        94  POPC      H8X           -32.5501799298      -10.3095984764        8.0449627019  MEMB      42              0.0000000000
      6475        94  POPC      H8Y           -33.3624529267       -8.7321126170        8.3363715767  MEMB      42              0.0000000000
      6476        94  POPC      C39           -34.2480873546       -9.8779825342        6.7323360247  MEMB      42              0.0000000000
      6477        94  POPC      H9X           -35.2890063554       -9.5203686959        6.8914160837  MEMB      42              0.0000000000
      6478        94  POPC      H9Y           -34.3103266779      -10.9345422428        6.3933094425  MEMB      42              0.0000000000
      6479        94  POPC      C310          -33.6299060255       -8.9937169568        5.6370916122  MEMB      42              0.0000000000
      6480        94  POPC      H10X          -33.6604425158       -7.9357303724        5.9825330810  MEMB      42              0.0000000000
      6481        94  POPC      H10Y          -34.2581012277       -9.0636423598        4.7190283563  MEMB      42              0.0000000000
      6482        94  POPC      C311          -32.1831693859       -9.3427907747        5.2654429778  MEMB      42              0.0000000000
      6483        94  POPC      H11X          -31.5375010794       -9.2945530208        6.1683825781  MEMB      42              0.0000000000
      6484        94  POPC      H11Y          -31.8248952928       -8.5641916503        4.5538564138  MEMB      42              0.0000000000
      6485        94  POPC      C312          -32.0464082283      -10.7190252278        4.6033979924  MEMB      42              0.0000000000
      6486        94  POPC      H12X          -32.6968214882      -10.7559110065        3.7038924552  MEMB      42              0.0000000000
      6487        94  POPC      H12Y          -32.4115588874      -11.5077932176        5.2986469118  MEMB      42              0.0000000000
      6488        94  POPC      C313          -30.6054382916      -11.0505936465        4.1918461738  MEMB      42              0.0000000000
      6489        94  POPC      H13X          -30.6056699445      -12.0700799588        3.7513951599  MEMB      42              0.0000000000
      6490        94  POPC      H13Y          -29.9646159859      -11.0742459457        5.1013064565  MEMB      42              0.0000000000
      6491        94  POPC      C314          -29.9921709004      -10.0959143588        3.1590293673  MEMB      42              0.0000000000
      6492        94  POPC      H14X          -28.9611186382      -10.4403307989        2.9208303843  MEMB      42              0.0000000000
      6493        94  POPC      H14Y          -29.8990480852       -9.0749071443        3.5891029297  MEMB      42              0.0000000000
      6494        94  POPC      C315          -30.7923183816      -10.0197215721        1.8531902425  MEMB      42              0.0000000000
      6495        94  POPC      H15X          -31.7876428804       -9.5641863417        2.0563301887  MEMB      42              0.0000000000
      6496        94  POPC      H15Y          -30.9753920507      -11.0490486325        1.4688518439  MEMB      42              0.0000000000
      6497        94  POPC      C316          -30.0708008984       -9.2006276873        0.7868137328  MEMB      42              0.0000000000
      6498        94  POPC      H16X          -29.8676051695       -8.1758243499        1.1622997309  MEMB      42              0.0000000000
      6499        94  POPC      H16Y          -30.6852829886       -9.1195155031       -0.1355802140  MEMB      42              0.0000000000
      6500        94  POPC      H16Z          -29.1009787480       -9.6738039523        0.5330446028  MEMB      42              0.0000000000
      6501        95  POPC      N             -31.1210090753        7.7018447015       18.6494942277  MEMB      43              0.0000000000
      6502        95  POPC      C12           -29.6885854822        7.7000319809       19.1916517535  MEMB      43              0.0000000000
      6503        95  POPC      H12A          -29.7462312085        7.9055107869       20.2577486429  MEMB      43              0.0000000000
      6504        95  POPC      H12B          -29.1065010071        8.4944317930       18.7338799851  MEMB      43              0.0000000000
      6505        95  POPC      C13           -31.9236121016        6.6659454945       19.3794497093  MEMB      43              0.0000000000
      6506        95  POPC      H13A          -31.8546812532        6.8375160385       20.4502844673  MEMB      43              0.0000000000
      6507        95  POPC      H13B          -32.9549151636        6.6303398258       19.0844522116  MEMB      43              0.0000000000
      6508        95  POPC      H13C          -31.4683589845        5.6795019587       19.2513621679  MEMB      43              0.0000000000
      6509        95  POPC      C14           -31.7958806182        9.0223374107       18.8907915474  MEMB      43              0.0000000000
      6510        95  POPC      H14A          -32.7850949981        9.0662225286       18.4462843725  MEMB      43              0.0000000000
      6511        95  POPC      H14B          -31.9170905845        9.2046921184       19.9596892660  MEMB      43              0.0000000000
      6512        95  POPC      H14C          -31.2096535659        9.8544835844       18.5214749652  MEMB      43              0.0000000000
      6513        95  POPC      C15           -31.1257253014        7.3868448819       17.1810657821  MEMB      43              0.0000000000
      6514        95  POPC      H15A          -30.7646204343        8.2149128615       16.5810719022  MEMB      43              0.0000000000
      6515        95  POPC      H15B          -32.1313090660        7.1728121021       16.8417247787  MEMB      43              0.0000000000
      6516        95  POPC      H15C          -30.5095188946        6.5121949456       17.0014988742  MEMB      43              0.0000000000
      6517        95  POPC      C11           -28.8925011258        6.3729968537       19.0825265212  MEMB      43              0.0000000000
      6518        95  POPC      H11A          -27.8698581973        6.5071523783       19.5143790215  MEMB      43              0.0000000000
      6519        95  POPC      H11B          -28.7586035407        6.0926361832       18.0146356922  MEMB      43              0.0000000000
      6520        95  POPC      P             -29.0189755263        3.9523777654       20.1684802889  MEMB      43              0.0000000000
      6521        95  POPC      O13           -30.1627633263        3.2308833544       20.7753432567  MEMB      43              0.0000000000
      6522        95  POPC      O14           -27.8585966074        4.2443832623       21.0329193562  MEMB      43              0.0000000000
      6523        95  POPC      O12           -29.6044258470        5.3689515148       19.7836092858  MEMB      43              0.0000000000
      6524        95  POPC      O11           -28.6585807908        3.3117841774       18.7784063491  MEMB      43              0.0000000000
      6525        95  POPC      C1            -29.6906073995        3.2491742386       17.7837000194  MEMB      43              0.0000000000
      6526        95  POPC      HA            -30.4191060678        4.0945845790       17.8414444296  MEMB      43              0.0000000000
      6527        95  POPC      HB            -30.2650436259        2.2991656527       17.8950895941  MEMB      43              0.0000000000
      6528        95  POPC      C2            -29.0849187732        3.2945193553       16.3639626614  MEMB      43              0.0000000000
      6529        95  POPC      HS            -28.4753855095        2.3661406370       16.2358544903  MEMB      43              0.0000000000
      6530        95  POPC      O21           -28.3533097203        4.5231868908       16.1495805058  MEMB      43              0.0000000000
      6531        95  POPC      C21           -27.0483880445        4.3080040137       16.0148280769  MEMB      43              0.0000000000
      6532        95  POPC      O22           -26.4682587439        3.2882733078       16.3298810529  MEMB      43              0.0000000000
      6533        95  POPC      C22           -26.4369632957        5.4230703572       15.1763887753  MEMB      43              0.0000000000
      6534        95  POPC      H2R           -25.3434622343        5.4117973631       15.3794104227  MEMB      43              0.0000000000
      6535        95  POPC      H2S           -26.8466780186        6.4077221763       15.4692235408  MEMB      43              0.0000000000
      6536        95  POPC      C3            -30.2142917861        3.2325993808       15.3177876393  MEMB      43              0.0000000000
      6537        95  POPC      HX            -30.9382956264        4.0471028661       15.5508084146  MEMB      43              0.0000000000
      6538        95  POPC      HY            -30.7240442772        2.2501338662       15.4667464673  MEMB      43              0.0000000000
      6539        95  POPC      O31           -29.7010451625        3.3801905076       13.9700909620  MEMB      43              0.0000000000
      6540        95  POPC      C31           -30.6753583347        3.1555719597       13.0974393567  MEMB      43              0.0000000000
      6541        95  POPC      O32           -31.8254911212        2.8993543595       13.4086248502  MEMB      43              0.0000000000
      6542        95  POPC      C32           -30.1716574526        3.2666346357       11.6709635309  MEMB      43              0.0000000000
      6543        95  POPC      H2X           -30.1699250334        2.2429535007       11.2428638166  MEMB      43              0.0000000000
      6544        95  POPC      H2Y           -29.1265947502        3.6429716320       11.6782051760  MEMB      43              0.0000000000
      6545        95  POPC      C23           -26.6638681341        5.1295217482       13.6735253343  MEMB      43              0.0000000000
      6546        95  POPC      H3R           -27.7470126731        5.1691707997       13.4266058409  MEMB      43              0.0000000000
      6547        95  POPC      H3S           -26.3125106245        4.0899591500       13.4740353341  MEMB      43              0.0000000000
      6548        95  POPC      C24           -25.8664690968        6.0540694670       12.7453868584  MEMB      43              0.0000000000
      6549        95  POPC      H4R           -24.7993159465        5.9881526683       13.0664539906  MEMB      43              0.0000000000
      6550        95  POPC      H4S           -26.1820674580        7.1076309885       12.8860851027  MEMB      43              0.0000000000
      6551        95  POPC      C25           -25.9507060996        5.6520045739       11.2583530827  MEMB      43              0.0000000000
      6552        95  POPC      H5R           -25.8983583523        4.5405916449       11.1997663305  MEMB      43              0.0000000000
      6553        95  POPC      H5S           -25.0610218953        6.0502429013       10.7209398300  MEMB      43              0.0000000000
      6554        95  POPC      C26           -27.1992384118        6.1536584460       10.5095218917  MEMB      43              0.0000000000
      6555        95  POPC      H6R           -28.1039292079        6.0349377273       11.1438550708  MEMB      43              0.0000000000
      6556        95  POPC      H6S           -27.3307300151        5.5207977269        9.6014340530  MEMB      43              0.0000000000
      6557        95  POPC      C27           -27.0770258830        7.6104948955       10.0240442674  MEMB      43              0.0000000000
      6558        95  POPC      H7R           -26.1957337341        7.6871232569        9.3487941436  MEMB      43              0.0000000000
      6559        95  POPC      H7S           -26.8705142469        8.2533300558       10.9031508459  MEMB      43              0.0000000000
      6560        95  POPC      C28           -28.3364162881        8.1223671338        9.2878251186  MEMB      43              0.0000000000
      6561        95  POPC      H8R           -29.2020572194        8.0393020317        9.9796841809  MEMB      43              0.0000000000
      6562        95  POPC      H8S           -28.5454790611        7.4277517748        8.4471074672  MEMB      43              0.0000000000
      6563        95  POPC      C29           -28.1999923473        9.5573184999        8.8257240925  MEMB      43              0.0000000000
      6564        95  POPC      H91           -27.9173015665       10.2630187995        9.6165389017  MEMB      43              0.0000000000
      6565        95  POPC      C210          -28.3680858359       10.0515075658        7.5870032036  MEMB      43              0.0000000000
      6566        95  POPC      H101          -28.2130828994       11.1293457079        7.4198420273  MEMB      43              0.0000000000
      6567        95  POPC      C211          -28.7364844940        9.2738948219        6.3552499159  MEMB      43              0.0000000000
      6568        95  POPC      H11R          -29.7145869971        9.6319613654        5.9761501455  MEMB      43              0.0000000000
      6569        95  POPC      H11S          -28.9000360398        8.2003380586        6.5732133814  MEMB      43              0.0000000000
      6570        95  POPC      C212          -27.6701448792        9.4114810530        5.2482269264  MEMB      43              0.0000000000
      6571        95  POPC      H12R          -27.5407446228       10.4839995885        4.9781230857  MEMB      43              0.0000000000
      6572        95  POPC      H12S          -28.0402619774        8.8926029436        4.3349729774  MEMB      43              0.0000000000
      6573        95  POPC      C213          -26.2891556023        8.8301882284        5.6001997850  MEMB      43              0.0000000000
      6574        95  POPC      H13R          -25.8034630026        9.4929476117        6.3517003858  MEMB      43              0.0000000000
      6575        95  POPC      H13S          -25.6588749539        8.8558988512        4.6857223260  MEMB      43              0.0000000000
      6576        95  POPC      C214          -26.3035359616        7.3962952001        6.1646029767  MEMB      43              0.0000000000
      6577        95  POPC      H14R          -26.7091165873        7.4384671660        7.1961916945  MEMB      43              0.0000000000
      6578        95  POPC      H14S          -25.2561802590        7.0294891081        6.2360095176  MEMB      43              0.0000000000
      6579        95  POPC      C215          -27.1409265820        6.3747209771        5.3766260099  MEMB      43              0.0000000000
      6580        95  POPC      H15R          -28.1801291391        6.7473540915        5.2715111252  MEMB      43              0.0000000000
      6581        95  POPC      H15S          -27.1913211855        5.4250249945        5.9540283289  MEMB      43              0.0000000000
      6582        95  POPC      C216          -26.5704124930        6.0799181220        3.9901457345  MEMB      43              0.0000000000
      6583        95  POPC      H16R          -25.5877185326        5.5834735462        4.1058931714  MEMB      43              0.0000000000
      6584        95  POPC      H16S          -26.4003783682        7.0459353261        3.4669965284  MEMB      43              0.0000000000
      6585        95  POPC      C217          -27.4781924036        5.2094892188        3.1180291907  MEMB      43              0.0000000000
      6586        95  POPC      H17R          -27.7238820214        4.2621433209        3.6465697677  MEMB      43              0.0000000000
      6587        95  POPC      H17S          -26.9109754627        4.9343643181        2.1977429599  MEMB      43              0.0000000000
      6588        95  POPC      C218          -28.7588661428        5.9332099742        2.7064656823  MEMB      43              0.0000000000
      6589        95  POPC      H18R          -28.5284465826        6.9433615700        2.3036289437  MEMB      43              0.0000000000
      6590        95  POPC      H18S          -29.4362241191        6.0633109035        3.5742195957  MEMB      43              0.0000000000
      6591        95  POPC      H18T          -29.2913393352        5.3564667878        1.9257140729  MEMB      43              0.0000000000
      6592        95  POPC      C33           -31.0668013725        4.1962593180       10.8245573480  MEMB      43              0.0000000000
      6593        95  POPC      H3X           -31.1866438121        5.1803440186       11.3338314647  MEMB      43              0.0000000000
      6594        95  POPC      H3Y           -32.0825482986        3.7534269798       10.7039468756  MEMB      43              0.0000000000
      6595        95  POPC      C34           -30.4321780486        4.4302833839        9.4556312639  MEMB      43              0.0000000000
      6596        95  POPC      H4X           -30.1884024244        3.4494809744        8.9947292902  MEMB      43              0.0000000000
      6597        95  POPC      H4Y           -29.4655024111        4.9594561972        9.5963886285  MEMB      43              0.0000000000
      6598        95  POPC      C35           -31.2934637508        5.2463950680        8.4916157864  MEMB      43              0.0000000000
      6599        95  POPC      H5X           -31.4709267687        6.2580105388        8.9234537221  MEMB      43              0.0000000000
      6600        95  POPC      H5Y           -32.2834626572        4.7568270273        8.3480408805  MEMB      43              0.0000000000
      6601        95  POPC      C36           -30.5757021798        5.3898871274        7.1463479744  MEMB      43              0.0000000000
      6602        95  POPC      H6X           -30.5384975798        4.4040271241        6.6314558912  MEMB      43              0.0000000000
      6603        95  POPC      H6Y           -29.5227281894        5.6972222723        7.3430051829  MEMB      43              0.0000000000
      6604        95  POPC      C37           -31.2028139496        6.4345150005        6.2261698580  MEMB      43              0.0000000000
      6605        95  POPC      H7X           -30.5128421480        6.5850463936        5.3638472491  MEMB      43              0.0000000000
      6606        95  POPC      H7Y           -31.2778388950        7.4119578223        6.7532535513  MEMB      43              0.0000000000
      6607        95  POPC      C38           -32.5718511828        6.0253118686        5.6754864609  MEMB      43              0.0000000000
      6608        95  POPC      H8X           -33.3183177946        5.9068257067        6.4878891788  MEMB      43              0.0000000000
      6609        95  POPC      H8Y           -32.4656026870        5.0500741582        5.1497121917  MEMB      43              0.0000000000
      6610        95  POPC      C39           -33.0691002273        7.0728852187        4.6852130358  MEMB      43              0.0000000000
      6611        95  POPC      H9X           -32.1547377198        7.5075029923        4.2333889214  MEMB      43              0.0000000000
      6612        95  POPC      H9Y           -33.5971016876        7.8856340761        5.2349408452  MEMB      43              0.0000000000
      6613        95  POPC      C310          -33.9751889050        6.5210627998        3.5796774879  MEMB      43              0.0000000000
      6614        95  POPC      H10X          -34.7288517203        7.3053157483        3.3303673051  MEMB      43              0.0000000000
      6615        95  POPC      H10Y          -34.5216107586        5.6323524738        3.9574909916  MEMB      43              0.0000000000
      6616        95  POPC      C311          -33.2557131925        6.1826303280        2.2661326224  MEMB      43              0.0000000000
      6617        95  POPC      H11X          -32.6692716282        7.0313751941        1.8895446309  MEMB      43              0.0000000000
      6618        95  POPC      H11Y          -34.0292051387        5.9723428330        1.4994891775  MEMB      43              0.0000000000
      6619        95  POPC      C312          -32.2868852387        5.0083817039        2.3032794128  MEMB      43              0.0000000000
      6620        95  POPC      H12X          -32.8293296554        4.1434997525        2.7188545197  MEMB      43              0.0000000000
      6621        95  POPC      H12Y          -31.4369770971        5.2010153988        2.9881060323  MEMB      43              0.0000000000
      6622        95  POPC      C313          -31.7777087484        4.7264254350        0.8843949254  MEMB      43              0.0000000000
      6623        95  POPC      H13X          -30.9741089859        5.4465014335        0.6211327934  MEMB      43              0.0000000000
      6624        95  POPC      H13Y          -32.6102501700        4.8975033902        0.1673956356  MEMB      43              0.0000000000
      6625        95  POPC      C314          -31.3152020622        3.2885452092        0.6927339475  MEMB      43              0.0000000000
      6626        95  POPC      H14X          -30.5588762307        3.0336537179        1.4671662946  MEMB      43              0.0000000000
      6627        95  POPC      H14Y          -30.8361963073        3.1932185286       -0.3060678060  MEMB      43              0.0000000000
      6628        95  POPC      C315          -32.4963979781        2.3191662919        0.7574553757  MEMB      43              0.0000000000
      6629        95  POPC      H15X          -33.1959081837        2.5568713876       -0.0756462541  MEMB      43              0.0000000000
      6630        95  POPC      H15Y          -33.0666010084        2.4640058278        1.6932758639  MEMB      43              0.0000000000
      6631        95  POPC      C316          -32.0807907880        0.8596707332        0.7057814090  MEMB      43              0.0000000000
      6632        95  POPC      H16X          -32.9660691391        0.2046111681        0.8470300500  MEMB      43              0.0000000000
      6633        95  POPC      H16Y          -31.3382280143        0.6209802747        1.4922640226  MEMB      43              0.0000000000
      6634        95  POPC      H16Z          -31.6168545891        0.6364313103       -0.2710164769  MEMB      43              0.0000000000
      6635        96  POPC      N              25.8141237058      -32.8924567718       17.9704302186  MEMB      44              0.0000000000
      6636        96  POPC      C12            24.5834254769      -32.0901650697       17.6305694130  MEMB      44              0.0000000000
      6637        96  POPC      H12A           23.7116159635      -32.5517210693       18.0823487137  MEMB      44              0.0000000000
      6638        96  POPC      H12B           24.3957861519      -32.1329968088       16.5581674138  MEMB      44              0.0000000000
      6639        96  POPC      C13            26.0079663506      -32.9269526192       19.4570514556  MEMB      44              0.0000000000
      6640        96  POPC      H13A           26.8799459771      -33.4914497419       19.7376659487  MEMB      44              0.0000000000
      6641        96  POPC      H13B           26.1836741094      -31.9186244364       19.8448290549  MEMB      44              0.0000000000
      6642        96  POPC      H13C           25.1565614598      -33.2845296157       20.0154976732  MEMB      44              0.0000000000
      6643        96  POPC      C14            25.7062384378      -34.3038255383       17.4581424325  MEMB      44              0.0000000000
      6644        96  POPC      H14A           25.5488128874      -34.3506106193       16.3874387696  MEMB      44              0.0000000000
      6645        96  POPC      H14B           26.6458240024      -34.8077695104       17.6584103158  MEMB      44              0.0000000000
      6646        96  POPC      H14C           24.9068435254      -34.8564149058       17.9374380449  MEMB      44              0.0000000000
      6647        96  POPC      C15            27.0220193794      -32.2346266246       17.3782698773  MEMB      44              0.0000000000
      6648        96  POPC      H15A           27.1356319739      -31.2313008510       17.7933148602  MEMB      44              0.0000000000
      6649        96  POPC      H15B           26.9902545756      -32.1262731088       16.3021369243  MEMB      44              0.0000000000
      6650        96  POPC      H15C           27.9413462879      -32.7363442003       17.6441490047  MEMB      44              0.0000000000
      6651        96  POPC      C11            24.5250536992      -30.5938044760       18.0113064645  MEMB      44              0.0000000000
      6652        96  POPC      H11A           23.6066098516      -30.1438291306       17.5705398610  MEMB      44              0.0000000000
      6653        96  POPC      H11B           25.3848475597      -30.0742057309       17.5373863125  MEMB      44              0.0000000000
      6654        96  POPC      P              25.4076039570      -29.5601639153       20.2792434520  MEMB      44              0.0000000000
      6655        96  POPC      O13            26.1153179969      -30.4505566663       21.2257546862  MEMB      44              0.0000000000
      6656        96  POPC      O14            24.6893754241      -28.4155390264       20.8852520276  MEMB      44              0.0000000000
      6657        96  POPC      O12            24.4416302684      -30.4411643432       19.4140089571  MEMB      44              0.0000000000
      6658        96  POPC      O11            26.4965330561      -29.0931134108       19.2583416229  MEMB      44              0.0000000000
      6659        96  POPC      C1             26.9294864967      -27.7486039973       19.1047395615  MEMB      44              0.0000000000
      6660        96  POPC      HA             27.8245008386      -27.5758154671       19.7436650439  MEMB      44              0.0000000000
      6661        96  POPC      HB             26.1702901370      -26.9987125635       19.4224903625  MEMB      44              0.0000000000
      6662        96  POPC      C2             27.3190120571      -27.5132431580       17.6182780705  MEMB      44              0.0000000000
      6663        96  POPC      HS             27.5307690276      -26.4306370189       17.4722566995  MEMB      44              0.0000000000
      6664        96  POPC      O21            26.3374119983      -27.9438985816       16.6455065489  MEMB      44              0.0000000000
      6665        96  POPC      C21            25.0787812713      -27.5189876424       16.7802318615  MEMB      44              0.0000000000
      6666        96  POPC      O22            24.6661786669      -26.8209801672       17.6812549700  MEMB      44              0.0000000000
      6667        96  POPC      C22            24.2288735393      -27.9595955405       15.5624813761  MEMB      44              0.0000000000
      6668        96  POPC      H2R            23.8228092029      -27.0296329386       15.1158418060  MEMB      44              0.0000000000
      6669        96  POPC      H2S            23.3732447032      -28.5476547062       15.9430613676  MEMB      44              0.0000000000
      6670        96  POPC      C3             28.6347544162      -28.2937536136       17.3369678105  MEMB      44              0.0000000000
      6671        96  POPC      HX             28.5296922729      -29.2406273352       17.9213763840  MEMB      44              0.0000000000
      6672        96  POPC      HY             29.4894468341      -27.7503586531       17.7727154432  MEMB      44              0.0000000000
      6673        96  POPC      O31            28.8618716740      -28.4889489649       15.9188069452  MEMB      44              0.0000000000
      6674        96  POPC      C31            29.1508609722      -29.7400070682       15.5676694491  MEMB      44              0.0000000000
      6675        96  POPC      O32            29.3415870965      -30.6535166097       16.3525257772  MEMB      44              0.0000000000
      6676        96  POPC      C32            29.2696881369      -29.8630728803       14.0309269516  MEMB      44              0.0000000000
      6677        96  POPC      H2X            29.3607772723      -30.9414756546       13.7987054842  MEMB      44              0.0000000000
      6678        96  POPC      H2Y            30.2234047390      -29.3638377421       13.7669175498  MEMB      44              0.0000000000
      6679        96  POPC      C23            25.0113739034      -28.7474520321       14.4773080222  MEMB      44              0.0000000000
      6680        96  POPC      H3R            25.3028038453      -29.7405714664       14.8908241321  MEMB      44              0.0000000000
      6681        96  POPC      H3S            25.9397292806      -28.1857295269       14.2529834112  MEMB      44              0.0000000000
      6682        96  POPC      C24            24.3058444677      -28.9984127866       13.1270790455  MEMB      44              0.0000000000
      6683        96  POPC      H4R            23.4375479115      -29.6584384028       13.3068521150  MEMB      44              0.0000000000
      6684        96  POPC      H4S            24.9970405006      -29.5680077870       12.4639669717  MEMB      44              0.0000000000
      6685        96  POPC      C25            23.8251646404      -27.7708606398       12.3233380981  MEMB      44              0.0000000000
      6686        96  POPC      H5R            23.1663044389      -27.1444059774       12.9563288759  MEMB      44              0.0000000000
      6687        96  POPC      H5S            23.2057953706      -28.1587387540       11.4815198464  MEMB      44              0.0000000000
      6688        96  POPC      C26            24.9635483480      -26.9406508379       11.7103471499  MEMB      44              0.0000000000
      6689        96  POPC      H6R            25.7510818631      -27.6386989949       11.3614892756  MEMB      44              0.0000000000
      6690        96  POPC      H6S            25.4111169425      -26.3028852945       12.4876835002  MEMB      44              0.0000000000
      6691        96  POPC      C27            24.5834621170      -26.0046941041       10.5525227177  MEMB      44              0.0000000000
      6692        96  POPC      H7R            25.4653888256      -25.3526428344       10.3397512170  MEMB      44              0.0000000000
      6693        96  POPC      H7S            23.7576183843      -25.3322778626       10.8719406870  MEMB      44              0.0000000000
      6694        96  POPC      C28            24.1905474509      -26.7442847983        9.2624628124  MEMB      44              0.0000000000
      6695        96  POPC      H8R            23.8727569270      -25.9789890669        8.5189749297  MEMB      44              0.0000000000
      6696        96  POPC      H8S            23.2980962150      -27.3751200653        9.4649789797  MEMB      44              0.0000000000
      6697        96  POPC      C29            25.3393855944      -27.5441101069        8.6957038860  MEMB      44              0.0000000000
      6698        96  POPC      H91            26.2858047831      -26.9856693214        8.6114474496  MEMB      44              0.0000000000
      6699        96  POPC      C210           25.3192689340      -28.8383443968        8.3299735623  MEMB      44              0.0000000000
      6700        96  POPC      H101           26.2280265898      -29.2841699697        7.9061603759  MEMB      44              0.0000000000
      6701        96  POPC      C211           24.1379158374      -29.7658720586        8.4129305284  MEMB      44              0.0000000000
      6702        96  POPC      H11R           23.6540411509      -29.6504421244        9.4099329432  MEMB      44              0.0000000000
      6703        96  POPC      H11S           24.4716067591      -30.8253760909        8.3562333684  MEMB      44              0.0000000000
      6704        96  POPC      C212           23.0498047719      -29.5186247723        7.3489802430  MEMB      44              0.0000000000
      6705        96  POPC      H12R           22.7721027003      -28.4430357478        7.3133801417  MEMB      44              0.0000000000
      6706        96  POPC      H12S           22.1477793839      -30.0771682826        7.6870164354  MEMB      44              0.0000000000
      6707        96  POPC      C213           23.3803579223      -30.0094164904        5.9310966595  MEMB      44              0.0000000000
      6708        96  POPC      H13R           23.6854728902      -31.0794152318        6.0068049065  MEMB      44              0.0000000000
      6709        96  POPC      H13S           24.2325074376      -29.4575379698        5.4909441401  MEMB      44              0.0000000000
      6710        96  POPC      C214           22.1537587876      -29.9325795631        5.0077358750  MEMB      44              0.0000000000
      6711        96  POPC      H14R           21.2641685487      -30.1253774846        5.6422174170  MEMB      44              0.0000000000
      6712        96  POPC      H14S           22.2078986255      -30.7427340895        4.2526108741  MEMB      44              0.0000000000
      6713        96  POPC      C215           21.8669423532      -28.5889261784        4.3193261822  MEMB      44              0.0000000000
      6714        96  POPC      H15R           21.9345268185      -27.7845517644        5.0843450871  MEMB      44              0.0000000000
      6715        96  POPC      H15S           20.8125878994      -28.6170478341        3.9549697474  MEMB      44              0.0000000000
      6716        96  POPC      C216           22.7602841413      -28.2280478511        3.1223503329  MEMB      44              0.0000000000
      6717        96  POPC      H16R           23.7346004468      -27.8755865379        3.5063676750  MEMB      44              0.0000000000
      6718        96  POPC      H16S           22.2958817717      -27.3749317963        2.5771258257  MEMB      44              0.0000000000
      6719        96  POPC      C217           23.0397848241      -29.3599407814        2.1244147081  MEMB      44              0.0000000000
      6720        96  POPC      H17R           23.5095751619      -30.2172179217        2.6525669808  MEMB      44              0.0000000000
      6721        96  POPC      H17S           23.7992030039      -28.9783584339        1.4063739299  MEMB      44              0.0000000000
      6722        96  POPC      C218           21.8054055921      -29.8320932003        1.3557083162  MEMB      44              0.0000000000
      6723        96  POPC      H18R           22.0717955569      -30.6172717802        0.6160608332  MEMB      44              0.0000000000
      6724        96  POPC      H18S           21.3529041732      -28.9826425944        0.8045384726  MEMB      44              0.0000000000
      6725        96  POPC      H18T           21.0441244242      -30.2446631553        2.0494374145  MEMB      44              0.0000000000
      6726        96  POPC      C33            28.1179836593      -29.2511781332       13.1774818292  MEMB      44              0.0000000000
      6727        96  POPC      H3X            27.9355104016      -28.2212335859       13.5328443231  MEMB      44              0.0000000000
      6728        96  POPC      H3Y            27.1824812815      -29.8152151764       13.3746472914  MEMB      44              0.0000000000
      6729        96  POPC      C34            28.3450146859      -29.1841356703       11.6303717783  MEMB      44              0.0000000000
      6730        96  POPC      H4X            27.7081649686      -28.3910550076       11.1954727084  MEMB      44              0.0000000000
      6731        96  POPC      H4Y            27.9438162829      -30.1212123021       11.2051682625  MEMB      44              0.0000000000
      6732        96  POPC      C35            29.8175852575      -28.9150433723       11.2015187033  MEMB      44              0.0000000000
      6733        96  POPC      H5X            30.3804523385      -29.7753321180       11.5382648674  MEMB      44              0.0000000000
      6734        96  POPC      H5Y            30.1833815425      -28.1359193453       11.9007324875  MEMB      44              0.0000000000
      6735        96  POPC      C36            30.1445539048      -28.3962598221        9.7472403914  MEMB      44              0.0000000000
      6736        96  POPC      H6X            30.6260687816      -27.4239974235        9.9901788714  MEMB      44              0.0000000000
      6737        96  POPC      H6Y            29.2041891590      -28.1048131615        9.2441805035  MEMB      44              0.0000000000
      6738        96  POPC      C37            31.1909996539      -28.8810332823        8.5957709746  MEMB      44              0.0000000000
      6739        96  POPC      H7X            30.8471691334      -28.2159397854        7.7793930986  MEMB      44              0.0000000000
      6740        96  POPC      H7Y            30.6210180925      -29.7918579761        8.7896055146  MEMB      44              0.0000000000
      6741        96  POPC      C38            31.9620730451      -30.0218210496        7.7186218725  MEMB      44              0.0000000000
      6742        96  POPC      H8X            32.9760036152      -30.0477277030        8.1345378621  MEMB      44              0.0000000000
      6743        96  POPC      H8Y            32.2710186386      -29.4035212750        6.8528924152  MEMB      44              0.0000000000
      6744        96  POPC      C39            31.7660821014      -31.5575969503        7.1692204161  MEMB      44              0.0000000000
      6745        96  POPC      H9X            32.3475167154      -32.0125228948        8.0014571945  MEMB      44              0.0000000000
      6746        96  POPC      H9Y            32.4028356677      -31.6379956899        6.2649254997  MEMB      44              0.0000000000
      6747        96  POPC      C310           30.7049220615      -32.7698693891        7.0402558296  MEMB      44              0.0000000000
      6748        96  POPC      H10X           30.3184160185      -33.1235438472        7.9951585890  MEMB      44              0.0000000000
      6749        96  POPC      H10Y           31.4839846303      -33.5630162167        6.8739890650  MEMB      44              0.0000000000
      6750        96  POPC      C311           29.7954150199      -33.3332943229        5.8652171600  MEMB      44              0.0000000000
      6751        96  POPC      H11X           29.6787827431      -34.4127556009        6.1645200328  MEMB      44              0.0000000000
      6752        96  POPC      H11Y           30.3508076100      -33.4047067912        4.9148109381  MEMB      44              0.0000000000
      6753        96  POPC      C312           28.3000315719      -32.9407465804        5.6283572777  MEMB      44              0.0000000000
      6754        96  POPC      H12X           28.1962912005      -31.9279582003        5.1972854682  MEMB      44              0.0000000000
      6755        96  POPC      H12Y           27.7385039569      -32.9477243339        6.5863337738  MEMB      44              0.0000000000
      6756        96  POPC      C313           27.5527886204      -33.9124095102        4.6745516027  MEMB      44              0.0000000000
      6757        96  POPC      H13X           26.4846897254      -34.0148784338        4.9697457620  MEMB      44              0.0000000000
      6758        96  POPC      H13Y           28.0078497797      -34.9199089132        4.7908608278  MEMB      44              0.0000000000
      6759        96  POPC      C314           27.5898619993      -33.4988102758        3.1879327191  MEMB      44              0.0000000000
      6760        96  POPC      H14X           27.3514806822      -34.3873726767        2.5580474922  MEMB      44              0.0000000000
      6761        96  POPC      H14Y           28.6213999824      -33.1762605255        2.9224503527  MEMB      44              0.0000000000
      6762        96  POPC      C315           26.5851683960      -32.4056500307        2.8020876552  MEMB      44              0.0000000000
      6763        96  POPC      H15X           26.8926266389      -31.9870419993        1.8141201071  MEMB      44              0.0000000000
      6764        96  POPC      H15Y           26.6347462434      -31.5807010044        3.5465386239  MEMB      44              0.0000000000
      6765        96  POPC      C316           25.1450521938      -32.9134268530        2.6912932612  MEMB      44              0.0000000000
      6766        96  POPC      H16X           25.0969173755      -33.8215070432        2.0525855934  MEMB      44              0.0000000000
      6767        96  POPC      H16Y           24.4903364294      -32.1382162202        2.2399455986  MEMB      44              0.0000000000
      6768        96  POPC      H16Z           24.7462752805      -33.1812167062        3.6929224582  MEMB      44              0.0000000000
      6769        97  POPC      N             -28.2899897716       19.1068892849       18.4611374569  MEMB      45              0.0000000000
      6770        97  POPC      C12           -28.4688206633       20.4718798785       17.8333080216  MEMB      45              0.0000000000
      6771        97  POPC      H12A          -29.4644194239       20.5218485285       17.3937173492  MEMB      45              0.0000000000
      6772        97  POPC      H12B          -27.7542210385       20.5661115648       17.0282219314  MEMB      45              0.0000000000
      6773        97  POPC      C13           -29.5109102564       18.7032036489       19.2336065497  MEMB      45              0.0000000000
      6774        97  POPC      H13A          -29.3442528728       17.7375174760       19.7058618852  MEMB      45              0.0000000000
      6775        97  POPC      H13B          -29.7064628178       19.4261705417       20.0277958512  MEMB      45              0.0000000000
      6776        97  POPC      H13C          -30.4055386098       18.6976094042       18.6395247065  MEMB      45              0.0000000000
      6777        97  POPC      C14           -28.0078136722       18.0570699166       17.4373093310  MEMB      45              0.0000000000
      6778        97  POPC      H14A          -27.8608355432       17.1058467328       17.9633273510  MEMB      45              0.0000000000
      6779        97  POPC      H14B          -28.8380864507       17.9419433558       16.7598707192  MEMB      45              0.0000000000
      6780        97  POPC      H14C          -27.0965623810       18.2383199526       16.8899185883  MEMB      45              0.0000000000
      6781        97  POPC      C15           -27.2002382606       19.0768563304       19.4916845838  MEMB      45              0.0000000000
      6782        97  POPC      H15A          -26.2397228571       19.2657332060       19.0576312439  MEMB      45              0.0000000000
      6783        97  POPC      H15B          -27.1720276001       18.0948314434       19.9759929180  MEMB      45              0.0000000000
      6784        97  POPC      H15C          -27.4209324981       19.8288249692       20.2513263741  MEMB      45              0.0000000000
      6785        97  POPC      C11           -28.3416416362       21.7211537410       18.7387071778  MEMB      45              0.0000000000
      6786        97  POPC      H11A          -28.4574529909       22.6469903667       18.1254949958  MEMB      45              0.0000000000
      6787        97  POPC      H11B          -27.3167313275       21.7670966054       19.1694826889  MEMB      45              0.0000000000
      6788        97  POPC      P             -30.8071376927       22.0578859510       19.6255082890  MEMB      45              0.0000000000
      6789        97  POPC      O13           -31.1364612238       23.2705424438       20.4177595822  MEMB      45              0.0000000000
      6790        97  POPC      O14           -31.6104195334       20.8382937479       19.8736733377  MEMB      45              0.0000000000
      6791        97  POPC      O12           -29.2822192618       21.6881218449       19.8012569511  MEMB      45              0.0000000000
      6792        97  POPC      O11           -30.9125372520       22.4546491880       18.0939580080  MEMB      45              0.0000000000
      6793        97  POPC      C1            -32.1640475643       22.8513046011       17.5132565872  MEMB      45              0.0000000000
      6794        97  POPC      HA            -32.2309843852       23.9598342029       17.4796083573  MEMB      45              0.0000000000
      6795        97  POPC      HB            -33.0232531538       22.4739632422       18.1210212866  MEMB      45              0.0000000000
      6796        97  POPC      C2            -32.4044445407       22.2733943496       16.0767808410  MEMB      45              0.0000000000
      6797        97  POPC      HS            -33.4988415243       22.3560526457       15.8697496058  MEMB      45              0.0000000000
      6798        97  POPC      O21           -31.9410701920       20.9125418346       16.0297793817  MEMB      45              0.0000000000
      6799        97  POPC      C21           -32.8527571346       20.0276610869       16.4109404548  MEMB      45              0.0000000000
      6800        97  POPC      O22           -34.0297957408       20.2687065949       16.6186812386  MEMB      45              0.0000000000
      6801        97  POPC      C22           -32.1914294044       18.6465736559       16.5131949710  MEMB      45              0.0000000000
      6802        97  POPC      H2R           -32.4261417570       18.2272414592       17.5130648997  MEMB      45              0.0000000000
      6803        97  POPC      H2S           -31.0932649442       18.7732326356       16.4295634759  MEMB      45              0.0000000000
      6804        97  POPC      C3            -31.7350475568       23.0760808560       14.9124111052  MEMB      45              0.0000000000
      6805        97  POPC      HX            -32.1653906188       24.0997494658       14.9258487314  MEMB      45              0.0000000000
      6806        97  POPC      HY            -32.0529731181       22.6001175104       13.9514127882  MEMB      45              0.0000000000
      6807        97  POPC      O31           -30.3078968105       23.1768121320       15.0527173749  MEMB      45              0.0000000000
      6808        97  POPC      C31           -29.5599153505       22.5272134633       14.1646260593  MEMB      45              0.0000000000
      6809        97  POPC      O32           -29.9201249938       22.0931086707       13.0887736140  MEMB      45              0.0000000000
      6810        97  POPC      C32           -28.1762466011       22.3719639281       14.7915041298  MEMB      45              0.0000000000
      6811        97  POPC      H2X           -28.3416200164       22.1943960763       15.8712228806  MEMB      45              0.0000000000
      6812        97  POPC      H2Y           -27.6169599389       23.3155229335       14.7048673021  MEMB      45              0.0000000000
      6813        97  POPC      C23           -32.6871859727       17.6978168346       15.3947587965  MEMB      45              0.0000000000
      6814        97  POPC      H3R           -33.7413742560       17.3963103045       15.5985508574  MEMB      45              0.0000000000
      6815        97  POPC      H3S           -32.0706832887       16.7702235200       15.3760852222  MEMB      45              0.0000000000
      6816        97  POPC      C24           -32.6388049576       18.3712615824       14.0142246039  MEMB      45              0.0000000000
      6817        97  POPC      H4R           -31.6638999968       18.8918028326       13.8752187756  MEMB      45              0.0000000000
      6818        97  POPC      H4S           -33.4453054647       19.1400938435       13.9605751606  MEMB      45              0.0000000000
      6819        97  POPC      C25           -32.8523776306       17.3870697097       12.8590154571  MEMB      45              0.0000000000
      6820        97  POPC      H5R           -33.8166219281       16.8496240012       13.0104160813  MEMB      45              0.0000000000
      6821        97  POPC      H5S           -32.0396292303       16.6319783768       12.8739438084  MEMB      45              0.0000000000
      6822        97  POPC      C26           -32.8501596758       18.0795671521       11.4899955305  MEMB      45              0.0000000000
      6823        97  POPC      H6R           -33.2041945104       19.1268619691       11.6067636033  MEMB      45              0.0000000000
      6824        97  POPC      H6S           -33.5700103694       17.5655666143       10.8185813036  MEMB      45              0.0000000000
      6825        97  POPC      C27           -31.4657988063       18.0486214909       10.8253853495  MEMB      45              0.0000000000
      6826        97  POPC      H7R           -31.3302459371       17.0301920345       10.3956163866  MEMB      45              0.0000000000
      6827        97  POPC      H7S           -30.6766778130       18.1929908998       11.5985135444  MEMB      45              0.0000000000
      6828        97  POPC      C28           -31.3002513989       19.1321222822        9.7458008002  MEMB      45              0.0000000000
      6829        97  POPC      H8R           -31.0842516822       20.0953639973       10.2653544681  MEMB      45              0.0000000000
      6830        97  POPC      H8S           -32.2661289803       19.2612094259        9.2111697509  MEMB      45              0.0000000000
      6831        97  POPC      C29           -30.1719557269       18.7863881985        8.8080265707  MEMB      45              0.0000000000
      6832        97  POPC      H91           -29.1977772413       18.6834900100        9.3097153216  MEMB      45              0.0000000000
      6833        97  POPC      C210          -30.2249155780       18.5851182789        7.4780840300  MEMB      45              0.0000000000
      6834        97  POPC      H101          -29.2963413937       18.3083036254        6.9571500556  MEMB      45              0.0000000000
      6835        97  POPC      C211          -31.4156891263       18.6472950964        6.5590325244  MEMB      45              0.0000000000
      6836        97  POPC      H11R          -31.4021746747       19.6117678112        6.0079774318  MEMB      45              0.0000000000
      6837        97  POPC      H11S          -32.3825711817       18.5984982847        7.1061664711  MEMB      45              0.0000000000
      6838        97  POPC      C212          -31.3628814533       17.4884351949        5.5396298376  MEMB      45              0.0000000000
      6839        97  POPC      H12R          -31.6449782749       16.5484840128        6.0687470760  MEMB      45              0.0000000000
      6840        97  POPC      H12S          -30.3368098732       17.3488948449        5.1370305307  MEMB      45              0.0000000000
      6841        97  POPC      C213          -32.3136505504       17.6950632524        4.3523998101  MEMB      45              0.0000000000
      6842        97  POPC      H13R          -33.3004177050       17.9796896807        4.7792016821  MEMB      45              0.0000000000
      6843        97  POPC      H13S          -32.4477990905       16.7358042349        3.8039250044  MEMB      45              0.0000000000
      6844        97  POPC      C214          -31.8810773987       18.7943644235        3.3649376210  MEMB      45              0.0000000000
      6845        97  POPC      H14R          -31.3432509707       18.3404549296        2.5042423795  MEMB      45              0.0000000000
      6846        97  POPC      H14S          -31.1735481314       19.4945684275        3.8606896807  MEMB      45              0.0000000000
      6847        97  POPC      C215          -33.0998691147       19.5978215255        2.8903347527  MEMB      45              0.0000000000
      6848        97  POPC      H15R          -33.5307790553       20.1103090001        3.7813077707  MEMB      45              0.0000000000
      6849        97  POPC      H15S          -33.8686480415       18.8810433436        2.5277408963  MEMB      45              0.0000000000
      6850        97  POPC      C216          -32.8169909373       20.6471292134        1.7974867431  MEMB      45              0.0000000000
      6851        97  POPC      H16R          -31.7347580081       20.6605544458        1.5456006444  MEMB      45              0.0000000000
      6852        97  POPC      H16S          -33.0718590285       21.6498441095        2.2092564621  MEMB      45              0.0000000000
      6853        97  POPC      C217          -33.6537483308       20.4049970007        0.5287532121  MEMB      45              0.0000000000
      6854        97  POPC      H17R          -34.6826337045       20.1389052230        0.8605845249  MEMB      45              0.0000000000
      6855        97  POPC      H17S          -33.2437392266       19.5228057858       -0.0123612916  MEMB      45              0.0000000000
      6856        97  POPC      C218          -33.7718259040       21.5883211302       -0.4415014238  MEMB      45              0.0000000000
      6857        97  POPC      H18R          -32.7837468689       21.9241167607       -0.8129940319  MEMB      45              0.0000000000
      6858        97  POPC      H18S          -34.2693457882       22.4536209873        0.0460210306  MEMB      45              0.0000000000
      6859        97  POPC      H18T          -34.3905254015       21.2938790984       -1.3186218628  MEMB      45              0.0000000000
      6860        97  POPC      C33           -27.3694489618       21.1939505692       14.2086857634  MEMB      45              0.0000000000
      6861        97  POPC      H3X           -28.0033999372       20.2789141272       14.1918036450  MEMB      45              0.0000000000
      6862        97  POPC      H3Y           -26.5181218563       20.9994853892       14.8980098329  MEMB      45              0.0000000000
      6863        97  POPC      C34           -26.7906054673       21.4420374673       12.8093232880  MEMB      45              0.0000000000
      6864        97  POPC      H4X           -26.2208614746       22.3946617482       12.7775001895  MEMB      45              0.0000000000
      6865        97  POPC      H4Y           -27.6207938399       21.5397110423       12.0735919271  MEMB      45              0.0000000000
      6866        97  POPC      C35           -25.8755654382       20.2802349973       12.4017010115  MEMB      45              0.0000000000
      6867        97  POPC      H5X           -26.4964519939       19.3581794107       12.4147754141  MEMB      45              0.0000000000
      6868        97  POPC      H5Y           -25.0784234919       20.1598240579       13.1687355857  MEMB      45              0.0000000000
      6869        97  POPC      C36           -25.2037561382       20.4270691632       11.0248732195  MEMB      45              0.0000000000
      6870        97  POPC      H6X           -24.4974546636       19.5762225693       10.8916133739  MEMB      45              0.0000000000
      6871        97  POPC      H6Y           -24.5997202113       21.3598487589       11.0015878920  MEMB      45              0.0000000000
      6872        97  POPC      C37           -26.1970191273       20.4251191659        9.8518557320  MEMB      45              0.0000000000
      6873        97  POPC      H7X           -26.8157117649       21.3466712941        9.9125051965  MEMB      45              0.0000000000
      6874        97  POPC      H7Y           -26.8812844604       19.5530189771        9.9489614446  MEMB      45              0.0000000000
      6875        97  POPC      C38           -25.5146605252       20.3462746904        8.4759368373  MEMB      45              0.0000000000
      6876        97  POPC      H8X           -24.9526009448       19.3877393063        8.4044898958  MEMB      45              0.0000000000
      6877        97  POPC      H8Y           -24.7741091225       21.1746105883        8.3903374872  MEMB      45              0.0000000000
      6878        97  POPC      C39           -26.4972707106       20.4455835782        7.2927574920  MEMB      45              0.0000000000
      6879        97  POPC      H9X           -27.2211084371       19.6017779132        7.3327686300  MEMB      45              0.0000000000
      6880        97  POPC      H9Y           -25.9141487008       20.3477340043        6.3484864376  MEMB      45              0.0000000000
      6881        97  POPC      C310          -27.2614415564       21.7807186137        7.2706474121  MEMB      45              0.0000000000
      6882        97  POPC      H10X          -26.5617023426       22.5663855350        7.6430725732  MEMB      45              0.0000000000
      6883        97  POPC      H10Y          -28.1189451351       21.7360861389        7.9778249095  MEMB      45              0.0000000000
      6884        97  POPC      C311          -27.7365824839       22.2388902997        5.8803796426  MEMB      45              0.0000000000
      6885        97  POPC      H11X          -26.8542532010       22.2885699917        5.2029821435  MEMB      45              0.0000000000
      6886        97  POPC      H11Y          -28.1390577658       23.2730827910        5.9752370805  MEMB      45              0.0000000000
      6887        97  POPC      C312          -28.8156113978       21.3637288905        5.2221095816  MEMB      45              0.0000000000
      6888        97  POPC      H12X          -29.7092853992       21.2940921453        5.8801864407  MEMB      45              0.0000000000
      6889        97  POPC      H12Y          -28.4137347154       20.3341219288        5.0917777275  MEMB      45              0.0000000000
      6890        97  POPC      C313          -29.2326078586       21.9107360614        3.8431601714  MEMB      45              0.0000000000
      6891        97  POPC      H13X          -29.5993085575       21.0792362916        3.2001640157  MEMB      45              0.0000000000
      6892        97  POPC      H13Y          -28.3327467311       22.3388171908        3.3483773000  MEMB      45              0.0000000000
      6893        97  POPC      C314          -30.3372720941       22.9760307430        3.9192940638  MEMB      45              0.0000000000
      6894        97  POPC      H14X          -30.2802894720       23.4936831200        4.9040539418  MEMB      45              0.0000000000
      6895        97  POPC      H14Y          -31.3290171471       22.4716725987        3.8741818004  MEMB      45              0.0000000000
      6896        97  POPC      C315          -30.2488631593       24.0495944446        2.8210524465  MEMB      45              0.0000000000
      6897        97  POPC      H15X          -29.3488886647       24.6783361640        3.0099584806  MEMB      45              0.0000000000
      6898        97  POPC      H15Y          -31.1306039705       24.7068069133        2.9338235355  MEMB      45              0.0000000000
      6899        97  POPC      C316          -30.2182208157       23.5482868833        1.3740127847  MEMB      45              0.0000000000
      6900        97  POPC      H16X          -31.1525487222       23.0007074669        1.1263448215  MEMB      45              0.0000000000
      6901        97  POPC      H16Y          -29.3539263008       22.8712174176        1.2109269053  MEMB      45              0.0000000000
      6902        97  POPC      H16Z          -30.1248476189       24.4095311371        0.6758019082  MEMB      45              0.0000000000
      6903        98  POPC      N             -25.2513411339       26.6782658279       19.6994940561  MEMB      46              0.0000000000
      6904        98  POPC      C12           -24.1607297209       27.7421766952       19.7223454418  MEMB      46              0.0000000000
      6905        98  POPC      H12A          -23.2516473662       27.2926055884       19.3489506227  MEMB      46              0.0000000000
      6906        98  POPC      H12B          -23.9782818310       28.0088489998       20.7597700439  MEMB      46              0.0000000000
      6907        98  POPC      C13           -26.5453140824       27.2616333164       20.1792817600  MEMB      46              0.0000000000
      6908        98  POPC      H13A          -26.4381940418       27.6333802625       21.1933734524  MEMB      46              0.0000000000
      6909        98  POPC      H13B          -26.8013634950       28.1209649216       19.5531645307  MEMB      46              0.0000000000
      6910        98  POPC      H13C          -27.3482817815       26.5383943072       20.1267036554  MEMB      46              0.0000000000
      6911        98  POPC      C14           -25.4702586212       26.1802624612       18.3111765913  MEMB      46              0.0000000000
      6912        98  POPC      H14A          -25.8380323891       27.0105687905       17.7054922697  MEMB      46              0.0000000000
      6913        98  POPC      H14B          -24.5578063337       25.8101687626       17.8584198370  MEMB      46              0.0000000000
      6914        98  POPC      H14C          -26.2324091177       25.4133244636       18.2932917318  MEMB      46              0.0000000000
      6915        98  POPC      C15           -24.8593045857       25.5814582029       20.6261217565  MEMB      46              0.0000000000
      6916        98  POPC      H15A          -25.5092152040       24.7253666029       20.5315573312  MEMB      46              0.0000000000
      6917        98  POPC      H15B          -24.9288167081       25.9317857740       21.6564266582  MEMB      46              0.0000000000
      6918        98  POPC      H15C          -23.8372391890       25.2682100334       20.4592389559  MEMB      46              0.0000000000
      6919        98  POPC      C11           -24.3999833561       29.0788185947       18.9812187065  MEMB      46              0.0000000000
      6920        98  POPC      H11A          -24.7784031800       28.8533884059       17.9537729224  MEMB      46              0.0000000000
      6921        98  POPC      H11B          -23.4171784808       29.5979881663       18.8813212413  MEMB      46              0.0000000000
      6922        98  POPC      P             -25.7962719504       31.2370085022       18.9897518489  MEMB      46              0.0000000000
      6923        98  POPC      O13           -24.6516605207       31.9757748008       18.4389187224  MEMB      46              0.0000000000
      6924        98  POPC      O14           -26.7254204949       31.9576643315       19.8937607991  MEMB      46              0.0000000000
      6925        98  POPC      O12           -25.2907425285       29.9234068487       19.7254275851  MEMB      46              0.0000000000
      6926        98  POPC      O11           -26.5499008001       30.5240464690       17.8290252349  MEMB      46              0.0000000000
      6927        98  POPC      C1            -27.6676109110       30.9615993474       17.1061717634  MEMB      46              0.0000000000
      6928        98  POPC      HA            -27.7005591607       32.0753002723       17.0778154404  MEMB      46              0.0000000000
      6929        98  POPC      HB            -28.6097205543       30.5845471749       17.5598803755  MEMB      46              0.0000000000
      6930        98  POPC      C2            -27.4986121494       30.4755856743       15.6457541770  MEMB      46              0.0000000000
      6931        98  POPC      HS            -28.1630478336       31.1189269428       15.0304315840  MEMB      46              0.0000000000
      6932        98  POPC      O21           -27.8251528061       29.1073132650       15.3306402886  MEMB      46              0.0000000000
      6933        98  POPC      C21           -27.9206961800       28.1232462184       16.1805287827  MEMB      46              0.0000000000
      6934        98  POPC      O22           -27.9880807327       28.1565367640       17.3940815342  MEMB      46              0.0000000000
      6935        98  POPC      C22           -27.9309480993       26.8002974121       15.3942249989  MEMB      46              0.0000000000
      6936        98  POPC      H2R           -28.6834146542       26.1454550672       15.8804633442  MEMB      46              0.0000000000
      6937        98  POPC      H2S           -26.9304257740       26.3410734154       15.5343378780  MEMB      46              0.0000000000
      6938        98  POPC      C3            -26.0279825341       30.7022736613       15.1623545943  MEMB      46              0.0000000000
      6939        98  POPC      HX            -25.3440447579       30.2001805059       15.8848734625  MEMB      46              0.0000000000
      6940        98  POPC      HY            -25.7723403603       31.7853189576       15.1930243449  MEMB      46              0.0000000000
      6941        98  POPC      O31           -25.7920676185       30.1118743787       13.8652443094  MEMB      46              0.0000000000
      6942        98  POPC      C31           -26.5885918307       30.5538811923       12.9003873245  MEMB      46              0.0000000000
      6943        98  POPC      O32           -27.1941945063       31.6108436253       12.9083886468  MEMB      46              0.0000000000
      6944        98  POPC      C32           -26.5340564093       29.5545147592       11.7302919074  MEMB      46              0.0000000000
      6945        98  POPC      H2X           -26.3237118163       28.5375322629       12.0898801430  MEMB      46              0.0000000000
      6946        98  POPC      H2Y           -25.6223522904       29.8919298721       11.1746378397  MEMB      46              0.0000000000
      6947        98  POPC      C23           -28.2376617513       26.9028120707       13.8779729311  MEMB      46              0.0000000000
      6948        98  POPC      H3R           -27.4278434030       27.4652940694       13.3749303140  MEMB      46              0.0000000000
      6949        98  POPC      H3S           -29.1907214291       27.4571468360       13.7295935036  MEMB      46              0.0000000000
      6950        98  POPC      C24           -28.3553176885       25.4914039421       13.2849017160  MEMB      46              0.0000000000
      6951        98  POPC      H4R           -29.2282698766       25.0339148759       13.7976239819  MEMB      46              0.0000000000
      6952        98  POPC      H4S           -27.4312557418       24.9310612004       13.5433051569  MEMB      46              0.0000000000
      6953        98  POPC      C25           -28.5664544395       25.3239065736       11.7726358397  MEMB      46              0.0000000000
      6954        98  POPC      H5R           -29.3738312951       26.0000486143       11.4247625445  MEMB      46              0.0000000000
      6955        98  POPC      H5S           -28.9093817097       24.2797605977       11.5806029096  MEMB      46              0.0000000000
      6956        98  POPC      C26           -27.2741011698       25.5283419500       10.9670516153  MEMB      46              0.0000000000
      6957        98  POPC      H6R           -26.5358822637       24.7352820642       11.2140329197  MEMB      46              0.0000000000
      6958        98  POPC      H6S           -26.8661634124       26.4965551163       11.3233874105  MEMB      46              0.0000000000
      6959        98  POPC      C27           -27.5089930659       25.5588762507        9.4407249688  MEMB      46              0.0000000000
      6960        98  POPC      H7R           -28.4509910099       26.1061903331        9.2427589029  MEMB      46              0.0000000000
      6961        98  POPC      H7S           -27.7176547689       24.5303830041        9.0788839013  MEMB      46              0.0000000000
      6962        98  POPC      C28           -26.3754546844       26.1920073252        8.5794862986  MEMB      46              0.0000000000
      6963        98  POPC      H8R           -26.8080246237       26.5472172771        7.6236200355  MEMB      46              0.0000000000
      6964        98  POPC      H8S           -25.7645049747       25.3324098465        8.2591066010  MEMB      46              0.0000000000
      6965        98  POPC      C29           -25.4951984183       27.2622695573        9.2111099985  MEMB      46              0.0000000000
      6966        98  POPC      H91           -25.3459358669       27.1505298142       10.2936392566  MEMB      46              0.0000000000
      6967        98  POPC      C210          -24.8260131887       28.2832242643        8.6297913687  MEMB      46              0.0000000000
      6968        98  POPC      H101          -24.2252542480       28.9410555063        9.2781343823  MEMB      46              0.0000000000
      6969        98  POPC      C211          -24.7591829124       28.6511056441        7.1690053803  MEMB      46              0.0000000000
      6970        98  POPC      H11R          -25.6264310710       28.2484697516        6.6005624150  MEMB      46              0.0000000000
      6971        98  POPC      H11S          -23.8430116932       28.1862878910        6.7412077211  MEMB      46              0.0000000000
      6972        98  POPC      C212          -24.6235439949       30.1560060793        6.8576972321  MEMB      46              0.0000000000
      6973        98  POPC      H12R          -23.9166682346       30.6470482079        7.5632137235  MEMB      46              0.0000000000
      6974        98  POPC      H12S          -25.6094995383       30.6464065773        6.9756812980  MEMB      46              0.0000000000
      6975        98  POPC      C213          -24.0976234365       30.3668382896        5.4286346199  MEMB      46              0.0000000000
      6976        98  POPC      H13R          -24.6010723094       29.6382030254        4.7537311206  MEMB      46              0.0000000000
      6977        98  POPC      H13S          -23.0086289718       30.1297715969        5.4272418250  MEMB      46              0.0000000000
      6978        98  POPC      C214          -24.3171982464       31.7787808297        4.8630898790  MEMB      46              0.0000000000
      6979        98  POPC      H14R          -23.7627569808       31.8547893829        3.8981109326  MEMB      46              0.0000000000
      6980        98  POPC      H14S          -23.8820545538       32.5304362672        5.5587553085  MEMB      46              0.0000000000
      6981        98  POPC      C215          -25.7972640616       32.1076183306        4.5853230390  MEMB      46              0.0000000000
      6982        98  POPC      H15R          -26.3825174670       32.0263491867        5.5271178315  MEMB      46              0.0000000000
      6983        98  POPC      H15S          -26.2073050208       31.3649197208        3.8684601882  MEMB      46              0.0000000000
      6984        98  POPC      C216          -25.9911977933       33.5222992505        4.0217363572  MEMB      46              0.0000000000
      6985        98  POPC      H16R          -25.4541127267       33.6315974302        3.0548602353  MEMB      46              0.0000000000
      6986        98  POPC      H16S          -25.5197462129       34.2143583295        4.7548957640  MEMB      46              0.0000000000
      6987        98  POPC      C217          -27.4563202668       33.9540558498        3.8501073093  MEMB      46              0.0000000000
      6988        98  POPC      H17R          -27.4680862479       35.0647107129        3.8292134828  MEMB      46              0.0000000000
      6989        98  POPC      H17S          -28.0444924533       33.6396810386        4.7412588224  MEMB      46              0.0000000000
      6990        98  POPC      C218          -28.1282817861       33.4683971625        2.5641601724  MEMB      46              0.0000000000
      6991        98  POPC      H18R          -27.9619290707       32.3857903800        2.4249646378  MEMB      46              0.0000000000
      6992        98  POPC      H18S          -27.7093586060       33.9905751082        1.6770494184  MEMB      46              0.0000000000
      6993        98  POPC      H18T          -29.2226829267       33.6583336353        2.5976954722  MEMB      46              0.0000000000
      6994        98  POPC      C33           -27.7152460335       29.6193883913       10.6861112858  MEMB      46              0.0000000000
      6995        98  POPC      H3X           -27.1359291729       29.3805166331        9.7813316281  MEMB      46              0.0000000000
      6996        98  POPC      H3Y           -28.0126110707       30.6720114136       10.6632298610  MEMB      46              0.0000000000
      6997        98  POPC      C34           -28.8803986071       28.5460460630       10.6091808843  MEMB      46              0.0000000000
      6998        98  POPC      H4X           -29.0818303718       28.3512842340       11.6876784720  MEMB      46              0.0000000000
      6999        98  POPC      H4Y           -28.3466427552       27.6819198733       10.2436595924  MEMB      46              0.0000000000
      7000        98  POPC      C35           -30.4008061409       28.5049764258        9.9929797924  MEMB      46              0.0000000000
      7001        98  POPC      H5X           -31.0349087414       28.6679260848       10.8781023757  MEMB      46              0.0000000000
      7002        98  POPC      H5Y           -30.4925332312       27.3867003342        9.9204350354  MEMB      46              0.0000000000
      7003        98  POPC      C36           -31.3079634491       28.8703427017        8.6476160634  MEMB      46              0.0000000000
      7004        98  POPC      H6X           -32.1608900252       29.2646382563        9.2635653396  MEMB      46              0.0000000000
      7005        98  POPC      H6Y           -31.7677572937       27.9301634008        8.2923644364  MEMB      46              0.0000000000
      7006        98  POPC      C37           -31.4971988373       30.0243190504        7.4960393632  MEMB      46              0.0000000000
      7007        98  POPC      H7X           -31.9389643595       30.9178799705        7.9766055695  MEMB      46              0.0000000000
      7008        98  POPC      H7Y           -32.4192178910       29.5272112014        7.0851396565  MEMB      46              0.0000000000
      7009        98  POPC      C38           -31.0245791332       30.4974122284        5.9942433609  MEMB      46              0.0000000000
      7010        98  POPC      H8X           -30.9455516136       31.5947722958        6.2304302502  MEMB      46              0.0000000000
      7011        98  POPC      H8Y           -31.9090636467       30.4126030751        5.3342327827  MEMB      46              0.0000000000
      7012        98  POPC      C39           -29.7918060456       30.3947365770        4.9796385132  MEMB      46              0.0000000000
      7013        98  POPC      H9X           -28.8108029243       30.2196660527        5.3792737917  MEMB      46              0.0000000000
      7014        98  POPC      H9Y           -29.7189193920       31.4207921823        4.5349550711  MEMB      46              0.0000000000
      7015        98  POPC      C310          -29.7391008016       29.4790454050        3.7177967495  MEMB      46              0.0000000000
      7016        98  POPC      H10X          -30.4667178445       29.7489778686        2.9538680405  MEMB      46              0.0000000000
      7017        98  POPC      H10Y          -29.9350813620       28.4452773993        3.9879642376  MEMB      46              0.0000000000
      7018        98  POPC      C311          -28.4025845498       29.5507085219        2.9336597341  MEMB      46              0.0000000000
      7019        98  POPC      H11X          -27.5466608560       29.6119077243        3.6351539303  MEMB      46              0.0000000000
      7020        98  POPC      H11Y          -28.4360098210       30.4954209319        2.3547668806  MEMB      46              0.0000000000
      7021        98  POPC      C312          -28.1529669526       28.4035174877        1.9278464051  MEMB      46              0.0000000000
      7022        98  POPC      H12X          -27.9331714087       28.8302969592        0.9242344639  MEMB      46              0.0000000000
      7023        98  POPC      H12Y          -29.0841461173       27.8072359011        1.8094522789  MEMB      46              0.0000000000
      7024        98  POPC      C313          -26.9926614788       27.4686118147        2.3376485557  MEMB      46              0.0000000000
      7025        98  POPC      H13X          -26.9585581920       26.5918101425        1.6505449796  MEMB      46              0.0000000000
      7026        98  POPC      H13Y          -27.2226740122       27.0885739359        3.3595810387  MEMB      46              0.0000000000
      7027        98  POPC      C314          -25.5966876328       28.1263290627        2.3724817987  MEMB      46              0.0000000000
      7028        98  POPC      H14X          -25.0609162000       27.7881423247        3.2881915016  MEMB      46              0.0000000000
      7029        98  POPC      H14Y          -25.6897671186       29.2324145721        2.4402681033  MEMB      46              0.0000000000
      7030        98  POPC      C315          -24.7051413131       27.7653248061        1.1750450095  MEMB      46              0.0000000000
      7031        98  POPC      H15X          -25.2236350876       28.0424307172        0.2366359637  MEMB      46              0.0000000000
      7032        98  POPC      H15Y          -24.5629099031       26.6627170519        1.1450863211  MEMB      46              0.0000000000
      7033        98  POPC      C316          -23.3446251977       28.4651115498        1.2102114063  MEMB      46              0.0000000000
      7034        98  POPC      H16X          -22.7674987152       28.1415350782        2.1015032881  MEMB      46              0.0000000000
      7035        98  POPC      H16Y          -23.4628683626       29.5629158290        1.2634095777  MEMB      46              0.0000000000
      7036        98  POPC      H16Z          -22.7572270187       28.2379272956        0.2956599242  MEMB      46              0.0000000000
      7037        99  POPC      N             -29.3187383176      -25.8323618501       20.7355036966  MEMB      47              0.0000000000
      7038        99  POPC      C12           -29.3393670163      -26.1268867305       19.2544907645  MEMB      47              0.0000000000
      7039        99  POPC      H12A          -29.9194214110      -27.0216838375       19.1012552456  MEMB      47              0.0000000000
      7040        99  POPC      H12B          -28.3220245725      -26.3811818951       18.9514676994  MEMB      47              0.0000000000
      7041        99  POPC      C13           -28.1074668162      -24.9731088621       20.9577527063  MEMB      47              0.0000000000
      7042        99  POPC      H13A          -27.9492840506      -24.3808854058       20.0449826933  MEMB      47              0.0000000000
      7043        99  POPC      H13B          -28.3040618838      -24.2244055586       21.7141883216  MEMB      47              0.0000000000
      7044        99  POPC      H13C          -27.2075896595      -25.5474408366       21.1448051485  MEMB      47              0.0000000000
      7045        99  POPC      C14           -30.5275655524      -25.0407962522       21.1465275795  MEMB      47              0.0000000000
      7046        99  POPC      H14A          -30.4703913670      -24.7167102210       22.1751842363  MEMB      47              0.0000000000
      7047        99  POPC      H14B          -30.5588052811      -24.1405800301       20.5197920306  MEMB      47              0.0000000000
      7048        99  POPC      H14C          -31.4407962766      -25.5913980840       20.9924411077  MEMB      47              0.0000000000
      7049        99  POPC      C15           -29.2571463264      -27.1375035763       21.4205210012  MEMB      47              0.0000000000
      7050        99  POPC      H15A          -28.9858071057      -27.0370285146       22.4666121813  MEMB      47              0.0000000000
      7051        99  POPC      H15B          -28.5151054133      -27.7748016916       20.9278126626  MEMB      47              0.0000000000
      7052        99  POPC      H15C          -30.2088184754      -27.6615853662       21.3607080572  MEMB      47              0.0000000000
      7053        99  POPC      C11           -29.8759158571      -25.0147830114       18.3373085550  MEMB      47              0.0000000000
      7054        99  POPC      H11A          -30.9869910917      -25.0791146009       18.3057126637  MEMB      47              0.0000000000
      7055        99  POPC      H11B          -29.4878997379      -25.2049044275       17.3043089483  MEMB      47              0.0000000000
      7056        99  POPC      P             -29.1347323973      -22.5577798796       17.9076800695  MEMB      47              0.0000000000
      7057        99  POPC      O13           -28.0286589454      -23.0278029155       17.0461757166  MEMB      47              0.0000000000
      7058        99  POPC      O14           -28.9395723672      -21.3539981356       18.7495490676  MEMB      47              0.0000000000
      7059        99  POPC      O12           -29.5093363738      -23.7374031092       18.8515484211  MEMB      47              0.0000000000
      7060        99  POPC      O11           -30.4664116661      -22.4831066291       17.1361560214  MEMB      47              0.0000000000
      7061        99  POPC      C1            -31.7662356518      -22.3554775617       17.7092219211  MEMB      47              0.0000000000
      7062        99  POPC      HA            -31.8806370686      -21.3228134621       18.1091705450  MEMB      47              0.0000000000
      7063        99  POPC      HB            -31.9437696816      -23.0643643624       18.5514865203  MEMB      47              0.0000000000
      7064        99  POPC      C2            -32.8499800102      -22.5828333222       16.6119093756  MEMB      47              0.0000000000
      7065        99  POPC      HS            -33.7945874168      -22.1225599601       16.9767887369  MEMB      47              0.0000000000
      7066        99  POPC      O21           -33.0624573700      -23.9909693173       16.4056162428  MEMB      47              0.0000000000
      7067        99  POPC      C21           -33.9334980681      -24.2605010884       15.4365728403  MEMB      47              0.0000000000
      7068        99  POPC      O22           -34.9294082929      -23.6069409843       15.1661785468  MEMB      47              0.0000000000
      7069        99  POPC      C22           -33.3700946861      -25.4044659742       14.6090394447  MEMB      47              0.0000000000
      7070        99  POPC      H2R           -34.2208721514      -26.0109162243       14.2798419175  MEMB      47              0.0000000000
      7071        99  POPC      H2S           -32.7358547076      -26.0427911400       15.2529969561  MEMB      47              0.0000000000
      7072        99  POPC      C3            -32.4279974430      -21.8800448576       15.2776144667  MEMB      47              0.0000000000
      7073        99  POPC      HX            -32.3559815462      -20.8264653630       15.5566981653  MEMB      47              0.0000000000
      7074        99  POPC      HY            -33.1953175846      -21.9736663715       14.4811578806  MEMB      47              0.0000000000
      7075        99  POPC      O31           -31.1317214756      -22.3051992741       14.8305646131  MEMB      47              0.0000000000
      7076        99  POPC      C31           -30.6747565652      -21.8201429535       13.7166105274  MEMB      47              0.0000000000
      7077        99  POPC      O32           -31.3487685357      -21.2385747778       12.8784909532  MEMB      47              0.0000000000
      7078        99  POPC      C32           -29.1722503275      -22.1324011350       13.6218757299  MEMB      47              0.0000000000
      7079        99  POPC      H2X           -28.9740741105      -23.1236979349       14.0836718816  MEMB      47              0.0000000000
      7080        99  POPC      H2Y           -28.6303511654      -21.3742166033       14.2209573885  MEMB      47              0.0000000000
      7081        99  POPC      C23           -32.4999211947      -24.8678460164       13.4478860103  MEMB      47              0.0000000000
      7082        99  POPC      H3R           -31.7499946714      -24.1829104849       13.8817346683  MEMB      47              0.0000000000
      7083        99  POPC      H3S           -33.0958009164      -24.3090717662       12.6948757646  MEMB      47              0.0000000000
      7084        99  POPC      C24           -31.6379497733      -25.9332876471       12.7840206885  MEMB      47              0.0000000000
      7085        99  POPC      H4R           -32.2983325356      -26.6017114580       12.1966587509  MEMB      47              0.0000000000
      7086        99  POPC      H4S           -31.1307356851      -26.5047258944       13.5963487581  MEMB      47              0.0000000000
      7087        99  POPC      C25           -30.5393144289      -25.3859215235       11.8694818680  MEMB      47              0.0000000000
      7088        99  POPC      H5R           -29.7996671747      -26.1874328381       11.6703171813  MEMB      47              0.0000000000
      7089        99  POPC      H5S           -29.9691257862      -24.5958264844       12.3882147638  MEMB      47              0.0000000000
      7090        99  POPC      C26           -31.1045396879      -24.9355877217       10.5213947123  MEMB      47              0.0000000000
      7091        99  POPC      H6R           -31.7082179547      -25.7899746176       10.1346798107  MEMB      47              0.0000000000
      7092        99  POPC      H6S           -31.7815624134      -24.0631891199       10.6369647106  MEMB      47              0.0000000000
      7093        99  POPC      C27           -30.0284294551      -24.6345990938        9.4756633372  MEMB      47              0.0000000000
      7094        99  POPC      H7R           -29.2144552160      -25.3909646267        9.5713824189  MEMB      47              0.0000000000
      7095        99  POPC      H7S           -29.5687771499      -23.6416736655        9.6621971880  MEMB      47              0.0000000000
      7096        99  POPC      C28           -30.5821641143      -24.7204387743        8.0499119910  MEMB      47              0.0000000000
      7097        99  POPC      H8R           -31.3683894673      -25.5050479601        8.0160670984  MEMB      47              0.0000000000
      7098        99  POPC      H8S           -29.7542803420      -25.0872607252        7.3993995770  MEMB      47              0.0000000000
      7099        99  POPC      C29           -31.0749300799      -23.3896067723        7.5426960547  MEMB      47              0.0000000000
      7100        99  POPC      H91           -30.2661519194      -22.6986523842        7.2637920675  MEMB      47              0.0000000000
      7101        99  POPC      C210          -32.3272683146      -22.9140842331        7.4522144672  MEMB      47              0.0000000000
      7102        99  POPC      H101          -32.4698202314      -21.9807096834        6.8849638114  MEMB      47              0.0000000000
      7103        99  POPC      C211          -33.6327765027      -23.5612619506        7.8270495880  MEMB      47              0.0000000000
      7104        99  POPC      H11R          -34.0951764154      -23.0029483041        8.6726774887  MEMB      47              0.0000000000
      7105        99  POPC      H11S          -33.5079138539      -24.6118264256        8.1667912694  MEMB      47              0.0000000000
      7106        99  POPC      C212          -34.5749222334      -23.4836274468        6.6140045263  MEMB      47              0.0000000000
      7107        99  POPC      H12R          -34.6410514646      -22.4372170554        6.2352795811  MEMB      47              0.0000000000
      7108        99  POPC      H12S          -35.6057355424      -23.7749657044        6.9202671306  MEMB      47              0.0000000000
      7109        99  POPC      C213          -34.1133122018      -24.4028395357        5.4781039865  MEMB      47              0.0000000000
      7110        99  POPC      H13R          -33.0485542081      -24.2148273301        5.2205955288  MEMB      47              0.0000000000
      7111        99  POPC      H13S          -34.7175307875      -24.1873455975        4.5696862747  MEMB      47              0.0000000000
      7112        99  POPC      C214          -34.2706453711      -25.8691874573        5.8692995012  MEMB      47              0.0000000000
      7113        99  POPC      H14R          -35.2157195763      -25.9560496920        6.4562070611  MEMB      47              0.0000000000
      7114        99  POPC      H14S          -33.4338605163      -26.2057080665        6.5173252466  MEMB      47              0.0000000000
      7115        99  POPC      C215          -34.4395417563      -26.7863008618        4.6721812525  MEMB      47              0.0000000000
      7116        99  POPC      H15R          -34.9619763656      -26.2531877634        3.8476623780  MEMB      47              0.0000000000
      7117        99  POPC      H15S          -35.0883470148      -27.6274546004        5.0029653565  MEMB      47              0.0000000000
      7118        99  POPC      C216          -33.1684675065      -27.4334802991        4.1464413906  MEMB      47              0.0000000000
      7119        99  POPC      H16R          -32.7052637204      -28.0094855167        4.9657168589  MEMB      47              0.0000000000
      7120        99  POPC      H16S          -32.4137591512      -26.6827921567        3.8436806998  MEMB      47              0.0000000000
      7121        99  POPC      C217          -33.5711959757      -28.3432156626        2.9848625109  MEMB      47              0.0000000000
      7122        99  POPC      H17R          -34.1065930140      -27.7405508634        2.2178328856  MEMB      47              0.0000000000
      7123        99  POPC      H17S          -34.2964207476      -29.0999279139        3.3737160507  MEMB      47              0.0000000000
      7124        99  POPC      C218          -32.4154723310      -29.0832995321        2.3475378217  MEMB      47              0.0000000000
      7125        99  POPC      H18R          -32.6473509969      -29.4254059987        1.3176597837  MEMB      47              0.0000000000
      7126        99  POPC      H18S          -32.2518875775      -29.9826730731        2.9703833095  MEMB      47              0.0000000000
      7127        99  POPC      H18T          -31.4861368028      -28.4706504733        2.3321266385  MEMB      47              0.0000000000
      7128        99  POPC      C33           -28.7133702164      -22.0997659540       12.1534417698  MEMB      47              0.0000000000
      7129        99  POPC      H3X           -28.9313566521      -21.1002857073       11.7349702216  MEMB      47              0.0000000000
      7130        99  POPC      H3Y           -29.3565512155      -22.8097330267       11.5929504359  MEMB      47              0.0000000000
      7131        99  POPC      C34           -27.2417492858      -22.4697860308       11.8968427851  MEMB      47              0.0000000000
      7132        99  POPC      H4X           -26.8145869936      -22.9703101539       12.7946304509  MEMB      47              0.0000000000
      7133        99  POPC      H4Y           -26.6548482834      -21.5448096062       11.7056254726  MEMB      47              0.0000000000
      7134        99  POPC      C35           -27.1243521070      -23.4252084918       10.7009252889  MEMB      47              0.0000000000
      7135        99  POPC      H5X           -27.4555650350      -22.8935781791        9.7811390429  MEMB      47              0.0000000000
      7136        99  POPC      H5Y           -27.8250463208      -24.2703645849       10.8865939830  MEMB      47              0.0000000000
      7137        99  POPC      C36           -25.7450011259      -24.0565416806       10.4721921241  MEMB      47              0.0000000000
      7138        99  POPC      H6X           -25.4044992577      -24.5236735414       11.4244443696  MEMB      47              0.0000000000
      7139        99  POPC      H6Y           -25.0142787557      -23.2650228734       10.2006996772  MEMB      47              0.0000000000
      7140        99  POPC      C37           -25.7714365711      -25.1499876987        9.3830390773  MEMB      47              0.0000000000
      7141        99  POPC      H7X           -26.3444285014      -26.0226672270        9.7747910530  MEMB      47              0.0000000000
      7142        99  POPC      H7Y           -24.7339320899      -25.4978149524        9.1860725500  MEMB      47              0.0000000000
      7143        99  POPC      C38           -26.4161271107      -24.7289023121        8.0493541188  MEMB      47              0.0000000000
      7144        99  POPC      H8X           -27.5003020424      -24.5507270645        8.2120738897  MEMB      47              0.0000000000
      7145        99  POPC      H8Y           -26.3302223334      -25.5729791559        7.3271559609  MEMB      47              0.0000000000
      7146        99  POPC      C39           -25.7894351434      -23.4756743807        7.4188611000  MEMB      47              0.0000000000
      7147        99  POPC      H9X           -24.6927116210      -23.6443471163        7.3165193544  MEMB      47              0.0000000000
      7148        99  POPC      H9Y           -25.9299730326      -22.6011383053        8.0906412991  MEMB      47              0.0000000000
      7149        99  POPC      C310          -26.3650280590      -23.1481005105        6.0305103361  MEMB      47              0.0000000000
      7150        99  POPC      H10X          -26.2072158403      -24.0306030412        5.3779331292  MEMB      47              0.0000000000
      7151        99  POPC      H10Y          -25.8119094280      -22.2867614283        5.5963452871  MEMB      47              0.0000000000
      7152        99  POPC      C311          -27.8667116858      -22.8520854322        6.0067933162  MEMB      47              0.0000000000
      7153        99  POPC      H11X          -28.0964595767      -22.0432359478        6.7346295836  MEMB      47              0.0000000000
      7154        99  POPC      H11Y          -28.4080977969      -23.7685735766        6.3310292970  MEMB      47              0.0000000000
      7155        99  POPC      C312          -28.3891012593      -22.4590549519        4.6144076232  MEMB      47              0.0000000000
      7156        99  POPC      H12X          -28.1505301527      -23.2532013132        3.8770384894  MEMB      47              0.0000000000
      7157        99  POPC      H12Y          -27.8867102460      -21.5299164587        4.2705038740  MEMB      47              0.0000000000
      7158        99  POPC      C313          -29.9034886647      -22.2608298603        4.6466214373  MEMB      47              0.0000000000
      7159        99  POPC      H13X          -30.1394094143      -21.4740047490        5.3993270708  MEMB      47              0.0000000000
      7160        99  POPC      H13Y          -30.3784473501      -23.2135004413        4.9775014035  MEMB      47              0.0000000000
      7161        99  POPC      C314          -30.5556725412      -21.8690919793        3.3194473041  MEMB      47              0.0000000000
      7162        99  POPC      H14X          -30.3933614926      -22.6740298112        2.5699711988  MEMB      47              0.0000000000
      7163        99  POPC      H14Y          -30.0823097376      -20.9471882620        2.9268160108  MEMB      47              0.0000000000
      7164        99  POPC      C315          -32.0555194979      -21.6419559729        3.5538906076  MEMB      47              0.0000000000
      7165        99  POPC      H15X          -32.1725730951      -20.8695326871        4.3469655190  MEMB      47              0.0000000000
      7166        99  POPC      H15Y          -32.4794785914      -22.5829569334        3.9694948531  MEMB      47              0.0000000000
      7167        99  POPC      C316          -32.8742626913      -21.2394473717        2.3280828494  MEMB      47              0.0000000000
      7168        99  POPC      H16X          -32.6958710630      -21.9305016299        1.4775913320  MEMB      47              0.0000000000
      7169        99  POPC      H16Y          -32.6288689219      -20.2089032263        2.0015545842  MEMB      47              0.0000000000
      7170        99  POPC      H16Z          -33.9541857170      -21.2765766168        2.5837151951  MEMB      47              0.0000000000
      7171       100  POPC      N               0.1044880570      -11.5150899266      -17.5820918053  MEMB      48              0.0000000000
      7172       100  POPC      C12            -0.0891751261      -11.3369287748      -19.0887866817  MEMB      48              0.0000000000
      7173       100  POPC      H12A            0.0951340973      -12.2774708660      -19.5793104182  MEMB      48              0.0000000000
      7174       100  POPC      H12B            0.6241345867      -10.6092068513      -19.4567924469  MEMB      48              0.0000000000
      7175       100  POPC      C13            -0.3052871070      -10.2304700534      -16.9180991809  MEMB      48              0.0000000000
      7176       100  POPC      H13A           -0.3047873799      -10.2620312311      -15.8433048708  MEMB      48              0.0000000000
      7177       100  POPC      H13B            0.2821316592       -9.3901428931      -17.2746048720  MEMB      48              0.0000000000
      7178       100  POPC      H13C           -1.3168589611       -9.9723169618      -17.2560564051  MEMB      48              0.0000000000
      7179       100  POPC      C14            -0.8049349653      -12.5992783337      -17.1115064373  MEMB      48              0.0000000000
      7180       100  POPC      H14A           -1.7988592743      -12.3843504960      -17.5008530261  MEMB      48              0.0000000000
      7181       100  POPC      H14B           -0.4975938733      -13.5675986842      -17.4797608447  MEMB      48              0.0000000000
      7182       100  POPC      H14C           -0.8794204566      -12.6139866341      -16.0307737896  MEMB      48              0.0000000000
      7183       100  POPC      C15             1.5303047633      -11.7628045384      -17.2105590778  MEMB      48              0.0000000000
      7184       100  POPC      H15A            1.6696066081      -11.5859787089      -16.1475704441  MEMB      48              0.0000000000
      7185       100  POPC      H15B            2.1889769988      -11.0662631721      -17.7156949068  MEMB      48              0.0000000000
      7186       100  POPC      H15C            1.8631022922      -12.7653441037      -17.4306589820  MEMB      48              0.0000000000
      7187       100  POPC      C11            -1.4608589131      -10.7945168001      -19.5730484424  MEMB      48              0.0000000000
      7188       100  POPC      H11A           -2.2909595796      -11.4430387783      -19.2163694040  MEMB      48              0.0000000000
      7189       100  POPC      H11B           -1.4813551470      -10.8408784917      -20.6897435249  MEMB      48              0.0000000000
      7190       100  POPC      P              -2.0363584745       -8.2647571360      -20.0356734136  MEMB      48              0.0000000000
      7191       100  POPC      O13            -3.4816577185       -8.3026175650      -20.3309212105  MEMB      48              0.0000000000
      7192       100  POPC      O14            -1.0441144179       -8.1670319319      -21.1479010593  MEMB      48              0.0000000000
      7193       100  POPC      O12            -1.6449081922       -9.4648708773      -19.0911374407  MEMB      48              0.0000000000
      7194       100  POPC      O11            -1.7177005210       -7.0513986224      -19.0862638339  MEMB      48              0.0000000000
      7195       100  POPC      C1             -1.3908648582       -5.7622546959      -19.6460879061  MEMB      48              0.0000000000
      7196       100  POPC      HA             -2.3118415336       -5.1429783524      -19.7275764692  MEMB      48              0.0000000000
      7197       100  POPC      HB             -0.9619494674       -5.8189879425      -20.6738015621  MEMB      48              0.0000000000
      7198       100  POPC      C2             -0.3395676338       -5.0210878504      -18.7711355601  MEMB      48              0.0000000000
      7199       100  POPC      HS              0.2146561132       -4.2918077813      -19.4036370950  MEMB      48              0.0000000000
      7200       100  POPC      O21             0.5638284684       -6.0148714459      -18.2602517290  MEMB      48              0.0000000000
      7201       100  POPC      C21             1.6101252684       -5.6135048640      -17.5764953220  MEMB      48              0.0000000000
      7202       100  POPC      O22             1.9422933248       -4.4581977569      -17.3782484556  MEMB      48              0.0000000000
      7203       100  POPC      C22             2.3403577631       -6.8720071071      -17.0902176671  MEMB      48              0.0000000000
      7204       100  POPC      H2R             2.7831211731       -7.3562452934      -17.9843581384  MEMB      48              0.0000000000
      7205       100  POPC      H2S             1.5876976045       -7.5626481783      -16.6635135993  MEMB      48              0.0000000000
      7206       100  POPC      C3             -1.0828186188       -4.2291711631      -17.6506024095  MEMB      48              0.0000000000
      7207       100  POPC      HX             -1.6187038686       -3.3984387523      -18.1638577277  MEMB      48              0.0000000000
      7208       100  POPC      HY             -0.3700845200       -3.7530263312      -16.9438529114  MEMB      48              0.0000000000
      7209       100  POPC      O31            -2.0798364616       -5.0506969609      -17.0143029339  MEMB      48              0.0000000000
      7210       100  POPC      C31            -1.6895716617       -5.7339730244      -15.9481454733  MEMB      48              0.0000000000
      7211       100  POPC      O32            -0.7106358845       -5.4594780617      -15.2702197728  MEMB      48              0.0000000000
      7212       100  POPC      C32            -2.7065049210       -6.8141520113      -15.6008760319  MEMB      48              0.0000000000
      7213       100  POPC      H2X            -2.9855589534       -7.3077293176      -16.5601369189  MEMB      48              0.0000000000
      7214       100  POPC      H2Y            -3.6137914513       -6.3280218104      -15.1860031566  MEMB      48              0.0000000000
      7215       100  POPC      C23             3.4545715133       -6.5767248744      -16.0632211919  MEMB      48              0.0000000000
      7216       100  POPC      H3R             4.1315518037       -5.7897936370      -16.4647956027  MEMB      48              0.0000000000
      7217       100  POPC      H3S             4.0676858282       -7.4978595534      -15.9309534314  MEMB      48              0.0000000000
      7218       100  POPC      C24             2.9242689185       -6.1654803691      -14.6817877615  MEMB      48              0.0000000000
      7219       100  POPC      H4R             2.1662112981       -5.3627277380      -14.8064908717  MEMB      48              0.0000000000
      7220       100  POPC      H4S             3.7618736732       -5.7571414716      -14.0705552932  MEMB      48              0.0000000000
      7221       100  POPC      C25             2.2981057380       -7.3392346748      -13.9227643292  MEMB      48              0.0000000000
      7222       100  POPC      H5R             3.0821070906       -8.1131824854      -13.7599523337  MEMB      48              0.0000000000
      7223       100  POPC      H5S             1.4888237461       -7.7953562074      -14.5357705332  MEMB      48              0.0000000000
      7224       100  POPC      C26             1.6895583550       -6.9372572838      -12.5777983742  MEMB      48              0.0000000000
      7225       100  POPC      H6R             0.9908252286       -6.0849991441      -12.7396469365  MEMB      48              0.0000000000
      7226       100  POPC      H6S             2.5045244300       -6.5951789723      -11.9023390418  MEMB      48              0.0000000000
      7227       100  POPC      C27             0.9098407087       -8.0917548805      -11.9284075825  MEMB      48              0.0000000000
      7228       100  POPC      H7R             0.0385154035       -8.3142577129      -12.5773783872  MEMB      48              0.0000000000
      7229       100  POPC      H7S             0.5147796872       -7.7732598016      -10.9424162261  MEMB      48              0.0000000000
      7230       100  POPC      C28             1.6801094171       -9.4242650124      -11.7997125509  MEMB      48              0.0000000000
      7231       100  POPC      H8R             1.9403799224       -9.7808427623      -12.8197175299  MEMB      48              0.0000000000
      7232       100  POPC      H8S             0.9757539176      -10.1825134296      -11.3861836019  MEMB      48              0.0000000000
      7233       100  POPC      C29             2.9160201764       -9.3647300719      -10.9432892111  MEMB      48              0.0000000000
      7234       100  POPC      H91             3.8655929183       -9.5604155156      -11.4657248734  MEMB      48              0.0000000000
      7235       100  POPC      C210            2.9177500828       -9.1491838252       -9.6189429391  MEMB      48              0.0000000000
      7236       100  POPC      H101            3.8674449645       -9.2162072752       -9.0701382768  MEMB      48              0.0000000000
      7237       100  POPC      C211            1.6881933097       -8.9330208565       -8.7704009111  MEMB      48              0.0000000000
      7238       100  POPC      H11R            0.7557797713       -9.1242787209       -9.3379834835  MEMB      48              0.0000000000
      7239       100  POPC      H11S            1.5985554998       -7.9062158280       -8.3743392032  MEMB      48              0.0000000000
      7240       100  POPC      C212            1.6917051507       -9.8054133857       -7.5261296114  MEMB      48              0.0000000000
      7241       100  POPC      H12R            1.7464709527      -10.8809160605       -7.8059624428  MEMB      48              0.0000000000
      7242       100  POPC      H12S            0.7339858060       -9.6715567440       -6.9931074850  MEMB      48              0.0000000000
      7243       100  POPC      C213            2.7843294132       -9.4168761204       -6.5427276029  MEMB      48              0.0000000000
      7244       100  POPC      H13R            2.3117581630       -8.9782813613       -5.6364840004  MEMB      48              0.0000000000
      7245       100  POPC      H13S            3.4511940837       -8.6298354946       -6.9512610494  MEMB      48              0.0000000000
      7246       100  POPC      C214            3.5806991205      -10.6599417891       -6.1939782177  MEMB      48              0.0000000000
      7247       100  POPC      H14R            4.1092777999      -11.0209125625       -7.1059840948  MEMB      48              0.0000000000
      7248       100  POPC      H14S            2.8828105327      -11.4733159965       -5.8849559942  MEMB      48              0.0000000000
      7249       100  POPC      C215            4.5664662482      -10.3863089136       -5.0750786699  MEMB      48              0.0000000000
      7250       100  POPC      H15R            5.2403569096       -9.5503515521       -5.3702772731  MEMB      48              0.0000000000
      7251       100  POPC      H15S            5.2141350530      -11.2777439783       -4.9700294078  MEMB      48              0.0000000000
      7252       100  POPC      C216            3.9209798754      -10.0385079819       -3.7178577044  MEMB      48              0.0000000000
      7253       100  POPC      H16R            3.8667656214       -8.9293714089       -3.6406702891  MEMB      48              0.0000000000
      7254       100  POPC      H16S            4.6131665251      -10.4319631332       -2.9374645635  MEMB      48              0.0000000000
      7255       100  POPC      C217            2.5273026335      -10.5674935558       -3.3449065667  MEMB      48              0.0000000000
      7256       100  POPC      H17R            2.4716374816      -11.6518010194       -3.5598635897  MEMB      48              0.0000000000
      7257       100  POPC      H17S            1.7431383080      -10.0710245307       -3.9571525887  MEMB      48              0.0000000000
      7258       100  POPC      C218            2.2071652772      -10.3178592601       -1.8625654395  MEMB      48              0.0000000000
      7259       100  POPC      H18R            1.2306074960      -10.7686483737       -1.5841333974  MEMB      48              0.0000000000
      7260       100  POPC      H18S            2.1635829855       -9.2268842128       -1.6556410674  MEMB      48              0.0000000000
      7261       100  POPC      H18T            2.9949559720      -10.7534752588       -1.2095717811  MEMB      48              0.0000000000
      7262       100  POPC      C33            -2.1843794188       -7.9039608689      -14.6216211331  MEMB      48              0.0000000000
      7263       100  POPC      H3X            -1.1106076075       -8.1392029980      -14.7833956435  MEMB      48              0.0000000000
      7264       100  POPC      H3Y            -2.7546616300       -8.8326180422      -14.8687577105  MEMB      48              0.0000000000
      7265       100  POPC      C34            -2.4652631015       -7.6220539911      -13.1352691640  MEMB      48              0.0000000000
      7266       100  POPC      H4X            -3.3885102515       -7.0086135546      -13.0525102489  MEMB      48              0.0000000000
      7267       100  POPC      H4Y            -1.6442343303       -7.0175785488      -12.6959075461  MEMB      48              0.0000000000
      7268       100  POPC      C35            -2.6837250040       -8.9092140035      -12.3068564432  MEMB      48              0.0000000000
      7269       100  POPC      H5X            -1.8020021001       -9.5818643183      -12.3898980661  MEMB      48              0.0000000000
      7270       100  POPC      H5Y            -3.5592101411       -9.4492156841      -12.7355596240  MEMB      48              0.0000000000
      7271       100  POPC      C36            -2.9588198584       -8.6136745899      -10.8197772674  MEMB      48              0.0000000000
      7272       100  POPC      H6X            -3.7469933484       -7.8252745297      -10.8010113444  MEMB      48              0.0000000000
      7273       100  POPC      H6Y            -2.0433456475       -8.1784357938      -10.3704431059  MEMB      48              0.0000000000
      7274       100  POPC      C37            -3.4957850390       -9.8116110798      -10.0047480596  MEMB      48              0.0000000000
      7275       100  POPC      H7X            -4.1205918140      -10.4383347992      -10.6806819124  MEMB      48              0.0000000000
      7276       100  POPC      H7Y            -4.1744120112       -9.4338174436       -9.2130865581  MEMB      48              0.0000000000
      7277       100  POPC      C38            -2.4418395046      -10.7098095461       -9.3341826920  MEMB      48              0.0000000000
      7278       100  POPC      H8X            -1.7749050302      -11.1037668162      -10.1377820130  MEMB      48              0.0000000000
      7279       100  POPC      H8Y            -2.9320006249      -11.5915941337       -8.8630494215  MEMB      48              0.0000000000
      7280       100  POPC      C39            -1.5650656101      -10.0219960099       -8.2751309550  MEMB      48              0.0000000000
      7281       100  POPC      H9X            -1.2729100403       -9.0108576670       -8.6268873494  MEMB      48              0.0000000000
      7282       100  POPC      H9Y            -0.6355588903      -10.6337089243       -8.2228585240  MEMB      48              0.0000000000
      7283       100  POPC      C310           -2.1433669395       -9.9384931336       -6.8480497111  MEMB      48              0.0000000000
      7284       100  POPC      H10X           -1.9753310053      -10.9141433585       -6.3325961967  MEMB      48              0.0000000000
      7285       100  POPC      H10Y           -3.2400297020       -9.7992844683       -6.9086921326  MEMB      48              0.0000000000
      7286       100  POPC      C311           -1.5053582541       -8.8060996635       -6.0106883688  MEMB      48              0.0000000000
      7287       100  POPC      H11X           -1.2640766086       -7.9420781996       -6.6694539944  MEMB      48              0.0000000000
      7288       100  POPC      H11Y           -0.5424225857       -9.1515393427       -5.5724539971  MEMB      48              0.0000000000
      7289       100  POPC      C312           -2.3540997003       -8.2987730923       -4.8364966472  MEMB      48              0.0000000000
      7290       100  POPC      H12X           -2.4705090533       -9.1220539537       -4.0942921508  MEMB      48              0.0000000000
      7291       100  POPC      H12Y           -3.3651219302       -8.0213888522       -5.1884099446  MEMB      48              0.0000000000
      7292       100  POPC      C313           -1.7135516347       -7.0813928359       -4.1394035591  MEMB      48              0.0000000000
      7293       100  POPC      H13X           -1.1586380672       -6.4647042198       -4.8827879935  MEMB      48              0.0000000000
      7294       100  POPC      H13Y           -0.9599803907       -7.4548288170       -3.4089886469  MEMB      48              0.0000000000
      7295       100  POPC      C314           -2.7035947796       -6.1488047864       -3.4132372177  MEMB      48              0.0000000000
      7296       100  POPC      H14X           -3.2335783304       -5.5170063336       -4.1595507944  MEMB      48              0.0000000000
      7297       100  POPC      H14Y           -2.1131119363       -5.4614716143       -2.7644794494  MEMB      48              0.0000000000
      7298       100  POPC      C315           -3.7317490151       -6.8524941192       -2.5155397136  MEMB      48              0.0000000000
      7299       100  POPC      H15X           -4.3812701297       -7.5127286236       -3.1307275708  MEMB      48              0.0000000000
      7300       100  POPC      H15Y           -4.3899818292       -6.0737163100       -2.0652265007  MEMB      48              0.0000000000
      7301       100  POPC      C316           -3.0978648308       -7.6663128348       -1.3841428281  MEMB      48              0.0000000000
      7302       100  POPC      H16X           -2.5121018226       -6.9997223238       -0.7129957660  MEMB      48              0.0000000000
      7303       100  POPC      H16Y           -2.4077558424       -8.4317186641       -1.7990992891  MEMB      48              0.0000000000
      7304       100  POPC      H16Z           -3.8801903355       -8.1804384580       -0.7869427671  MEMB      48              0.0000000000
      7305       101  POPC      N             -13.9208326911        2.8596413457      -20.4366121871  MEMB      49              0.0000000000
      7306       101  POPC      C12           -14.0280632617        4.2507966258      -21.0273725856  MEMB      49              0.0000000000
      7307       101  POPC      H12A          -14.3449394042        4.2020966989      -22.0588867616  MEMB      49              0.0000000000
      7308       101  POPC      H12B          -13.0160688447        4.6723564765      -21.0719209211  MEMB      49              0.0000000000
      7309       101  POPC      C13           -13.3091337760        1.9209216539      -21.4238601673  MEMB      49              0.0000000000
      7310       101  POPC      H13A          -13.9656526256        1.7102321299      -22.2551087954  MEMB      49              0.0000000000
      7311       101  POPC      H13B          -12.3546192902        2.3051012490      -21.8069543563  MEMB      49              0.0000000000
      7312       101  POPC      H13C          -13.0424777137        0.9894060080      -20.9406802412  MEMB      49              0.0000000000
      7313       101  POPC      C14           -13.0183456513        2.9658474651      -19.2513907692  MEMB      49              0.0000000000
      7314       101  POPC      H14A          -12.8856206916        2.0145960913      -18.7676252250  MEMB      49              0.0000000000
      7315       101  POPC      H14B          -12.0616028450        3.4004524126      -19.5306379040  MEMB      49              0.0000000000
      7316       101  POPC      H14C          -13.4286577017        3.6822945370      -18.5288242112  MEMB      49              0.0000000000
      7317       101  POPC      C15           -15.2307525382        2.2854581451      -19.9939152657  MEMB      49              0.0000000000
      7318       101  POPC      H15A          -15.5474449674        2.7859745774      -19.0834153427  MEMB      49              0.0000000000
      7319       101  POPC      H15B          -15.1307627323        1.2300420151      -19.7669101165  MEMB      49              0.0000000000
      7320       101  POPC      H15C          -15.9835269388        2.4009439235      -20.7609386711  MEMB      49              0.0000000000
      7321       101  POPC      C11           -14.8087365692        5.3395484625      -20.2683041657  MEMB      49              0.0000000000
      7322       101  POPC      H11A          -15.8046544153        4.9390192209      -19.9768804261  MEMB      49              0.0000000000
      7323       101  POPC      H11B          -14.9560442856        6.1909806769      -20.9676929717  MEMB      49              0.0000000000
      7324       101  POPC      P             -14.5194824895        5.9709249337      -17.6953258620  MEMB      49              0.0000000000
      7325       101  POPC      O13           -14.1493928661        7.3023705971      -17.1583697232  MEMB      49              0.0000000000
      7326       101  POPC      O14           -14.1026884905        4.7415488207      -16.9882670985  MEMB      49              0.0000000000
      7327       101  POPC      O12           -14.0204854755        5.8307759022      -19.1945866308  MEMB      49              0.0000000000
      7328       101  POPC      O11           -16.1123646625        5.9378949158      -17.9023636902  MEMB      49              0.0000000000
      7329       101  POPC      C1            -16.8945425968        4.7877730674      -17.5421774004  MEMB      49              0.0000000000
      7330       101  POPC      HA            -16.2737834671        3.8924547408      -17.2973670598  MEMB      49              0.0000000000
      7331       101  POPC      HB            -17.5369464440        4.4979070130      -18.4029100859  MEMB      49              0.0000000000
      7332       101  POPC      C2            -17.8008982824        5.0426656345      -16.3022371649  MEMB      49              0.0000000000
      7333       101  POPC      HS            -18.5122548305        5.8578758376      -16.5750832974  MEMB      49              0.0000000000
      7334       101  POPC      O21           -16.9736077979        5.4275739446      -15.1971736282  MEMB      49              0.0000000000
      7335       101  POPC      C21           -17.5825473387        6.0556123684      -14.2130837235  MEMB      49              0.0000000000
      7336       101  POPC      O22           -18.7815897842        6.2625286188      -14.1349932618  MEMB      49              0.0000000000
      7337       101  POPC      C22           -16.5304032479        6.6084033243      -13.2438435275  MEMB      49              0.0000000000
      7338       101  POPC      H2R           -16.1367040401        5.7637983045      -12.6493392575  MEMB      49              0.0000000000
      7339       101  POPC      H2S           -17.0449601795        7.3091775882      -12.5587096151  MEMB      49              0.0000000000
      7340       101  POPC      C3            -18.6055440235        3.7670618211      -15.9493221088  MEMB      49              0.0000000000
      7341       101  POPC      HX            -19.2404840636        3.5245781242      -16.8243955676  MEMB      49              0.0000000000
      7342       101  POPC      HY            -19.2939353060        3.9676786123      -15.0977090965  MEMB      49              0.0000000000
      7343       101  POPC      O31           -17.7018038600        2.6697505883      -15.7248107120  MEMB      49              0.0000000000
      7344       101  POPC      C31           -17.5276170691        2.3136727922      -14.4568000990  MEMB      49              0.0000000000
      7345       101  POPC      O32           -18.2830408545        2.5555081978      -13.5296591614  MEMB      49              0.0000000000
      7346       101  POPC      C32           -16.1776733463        1.5942261284      -14.4261890534  MEMB      49              0.0000000000
      7347       101  POPC      H2X           -15.5174631724        2.0545915479      -15.1919351073  MEMB      49              0.0000000000
      7348       101  POPC      H2Y           -16.3664614284        0.5397267103      -14.7205001585  MEMB      49              0.0000000000
      7349       101  POPC      C23           -15.3658622275        7.3235885799      -13.9751437035  MEMB      49              0.0000000000
      7350       101  POPC      H3R           -15.7777536510        8.0838840242      -14.6764531499  MEMB      49              0.0000000000
      7351       101  POPC      H3S           -14.8027341204        6.5877580200      -14.5975110902  MEMB      49              0.0000000000
      7352       101  POPC      C24           -14.3626649126        8.0108032355      -13.0363622976  MEMB      49              0.0000000000
      7353       101  POPC      H4R           -14.8990711804        8.5944434478      -12.2599177965  MEMB      49              0.0000000000
      7354       101  POPC      H4S           -13.7555205282        8.7237475130      -13.6433197812  MEMB      49              0.0000000000
      7355       101  POPC      C25           -13.3660316261        7.0373519325      -12.3862524357  MEMB      49              0.0000000000
      7356       101  POPC      H5R           -12.7850718644        6.5492963974      -13.2038232265  MEMB      49              0.0000000000
      7357       101  POPC      H5S           -13.9171606390        6.2400233064      -11.8468774950  MEMB      49              0.0000000000
      7358       101  POPC      C26           -12.3803584469        7.7474720556      -11.4416642723  MEMB      49              0.0000000000
      7359       101  POPC      H6R           -12.9305819321        8.1798688688      -10.5780994911  MEMB      49              0.0000000000
      7360       101  POPC      H6S           -11.9273078761        8.5937407365      -12.0094779147  MEMB      49              0.0000000000
      7361       101  POPC      C27           -11.2454922118        6.8362008740      -10.9399705391  MEMB      49              0.0000000000
      7362       101  POPC      H7R           -10.4404485060        7.4675872390      -10.5041898662  MEMB      49              0.0000000000
      7363       101  POPC      H7S           -10.8240021734        6.3087753844      -11.8270835402  MEMB      49              0.0000000000
      7364       101  POPC      C28           -11.6996602684        5.7775404335       -9.9120143314  MEMB      49              0.0000000000
      7365       101  POPC      H8R           -10.9588057812        4.9570131451       -9.8439748433  MEMB      49              0.0000000000
      7366       101  POPC      H8S           -12.5977558310        5.2905211224      -10.3271730515  MEMB      49              0.0000000000
      7367       101  POPC      C29           -11.9571167640        6.3212446527       -8.5298159119  MEMB      49              0.0000000000
      7368       101  POPC      H91           -11.0598565536        6.4707673189       -7.9108440136  MEMB      49              0.0000000000
      7369       101  POPC      C210          -13.1602759597        6.6372068132       -8.0181229639  MEMB      49              0.0000000000
      7370       101  POPC      H101          -13.2159430629        6.9829019450       -6.9737302548  MEMB      49              0.0000000000
      7371       101  POPC      C211          -14.4897667085        6.5125099682       -8.7296538445  MEMB      49              0.0000000000
      7372       101  POPC      H11R          -14.3807276587        5.9997205878       -9.7075817652  MEMB      49              0.0000000000
      7373       101  POPC      H11S          -14.8875569598        7.5170370005       -8.9815774751  MEMB      49              0.0000000000
      7374       101  POPC      C212          -15.5746012145        5.7414568647       -7.9517436876  MEMB      49              0.0000000000
      7375       101  POPC      H12R          -15.1158513600        5.0463112811       -7.2167321692  MEMB      49              0.0000000000
      7376       101  POPC      H12S          -16.1418892846        5.1156100825       -8.6788495632  MEMB      49              0.0000000000
      7377       101  POPC      C213          -16.5808585153        6.6604353846       -7.2627476489  MEMB      49              0.0000000000
      7378       101  POPC      H13R          -17.0423479556        7.3141859104       -8.0385403069  MEMB      49              0.0000000000
      7379       101  POPC      H13S          -16.0515917172        7.3243019601       -6.5518011516  MEMB      49              0.0000000000
      7380       101  POPC      C214          -17.7018501427        5.9071776226       -6.5335538589  MEMB      49              0.0000000000
      7381       101  POPC      H14R          -18.2595924348        5.2916346946       -7.2763720478  MEMB      49              0.0000000000
      7382       101  POPC      H14S          -18.4204988512        6.6596364857       -6.1445264972  MEMB      49              0.0000000000
      7383       101  POPC      C215          -17.2594871502        4.9795167890       -5.3826370470  MEMB      49              0.0000000000
      7384       101  POPC      H15R          -16.9405291510        4.0082802336       -5.8301005186  MEMB      49              0.0000000000
      7385       101  POPC      H15S          -18.1482646822        4.7604659488       -4.7482980134  MEMB      49              0.0000000000
      7386       101  POPC      C216          -16.1012465272        5.4390942844       -4.4650660132  MEMB      49              0.0000000000
      7387       101  POPC      H16R          -15.1389761722        5.3628999032       -5.0157136530  MEMB      49              0.0000000000
      7388       101  POPC      H16S          -16.0617513346        4.7015258564       -3.6332434145  MEMB      49              0.0000000000
      7389       101  POPC      C217          -16.1742699957        6.8303654758       -3.8153363290  MEMB      49              0.0000000000
      7390       101  POPC      H17R          -15.7621659558        7.5964628523       -4.5060039010  MEMB      49              0.0000000000
      7391       101  POPC      H17S          -15.5020900895        6.8195008767       -2.9241811244  MEMB      49              0.0000000000
      7392       101  POPC      C218          -17.5678130352        7.2515136696       -3.3697656377  MEMB      49              0.0000000000
      7393       101  POPC      H18R          -18.0614194868        6.4424724754       -2.7960261771  MEMB      49              0.0000000000
      7394       101  POPC      H18S          -18.2055273092        7.4873434940       -4.2425043411  MEMB      49              0.0000000000
      7395       101  POPC      H18T          -17.5149613883        8.1585008657       -2.7319798241  MEMB      49              0.0000000000
      7396       101  POPC      C33           -15.4879760740        1.6488514315      -13.0509560673  MEMB      49              0.0000000000
      7397       101  POPC      H3X           -14.7172294071        0.8490487179      -13.0155546733  MEMB      49              0.0000000000
      7398       101  POPC      H3Y           -16.2233613204        1.4215366795      -12.2468681787  MEMB      49              0.0000000000
      7399       101  POPC      C34           -14.7462146038        2.9467843707      -12.7605890214  MEMB      49              0.0000000000
      7400       101  POPC      H4X           -15.4709351953        3.7856244621      -12.7014936551  MEMB      49              0.0000000000
      7401       101  POPC      H4Y           -14.0336720959        3.1814472202      -13.5846966836  MEMB      49              0.0000000000
      7402       101  POPC      C35           -13.9786228939        2.8255017004      -11.4366088025  MEMB      49              0.0000000000
      7403       101  POPC      H5X           -13.3948389345        3.7567381623      -11.3125201524  MEMB      49              0.0000000000
      7404       101  POPC      H5Y           -13.2535586588        1.9848962227      -11.4869302866  MEMB      49              0.0000000000
      7405       101  POPC      C36           -14.8987408127        2.6287490468      -10.2202484110  MEMB      49              0.0000000000
      7406       101  POPC      H6X           -15.2812345803        1.5853587074      -10.1842295717  MEMB      49              0.0000000000
      7407       101  POPC      H6Y           -15.7764205850        3.3055023050      -10.3471063115  MEMB      49              0.0000000000
      7408       101  POPC      C37           -14.2250112137        2.9750475148       -8.8811746774  MEMB      49              0.0000000000
      7409       101  POPC      H7X           -14.9855922285        2.9667887270       -8.0696461968  MEMB      49              0.0000000000
      7410       101  POPC      H7Y           -13.8340095173        4.0081287550       -8.9743465669  MEMB      49              0.0000000000
      7411       101  POPC      C38           -13.0418058405        2.0892338653       -8.4794644323  MEMB      49              0.0000000000
      7412       101  POPC      H8X           -12.3738474886        1.9925916165       -9.3649746881  MEMB      49              0.0000000000
      7413       101  POPC      H8Y           -13.3946828805        1.0703422027       -8.2125998155  MEMB      49              0.0000000000
      7414       101  POPC      C39           -12.1973842042        2.7070008163       -7.3442416894  MEMB      49              0.0000000000
      7415       101  POPC      H9X           -12.3787420833        3.8016113151       -7.2768204259  MEMB      49              0.0000000000
      7416       101  POPC      H9Y           -11.1252810822        2.5603740911       -7.6193150912  MEMB      49              0.0000000000
      7417       101  POPC      C310          -12.3964017832        2.0647201182       -5.9647958178  MEMB      49              0.0000000000
      7418       101  POPC      H10X          -11.5287856039        2.3458445292       -5.3252332282  MEMB      49              0.0000000000
      7419       101  POPC      H10Y          -12.3880364497        0.9576283295       -6.0735749833  MEMB      49              0.0000000000
      7420       101  POPC      C311          -13.6639350214        2.4962116710       -5.2087864761  MEMB      49              0.0000000000
      7421       101  POPC      H11X          -14.5702346855        2.2924467449       -5.8195053912  MEMB      49              0.0000000000
      7422       101  POPC      H11Y          -13.6229581160        3.5903941704       -5.0113013452  MEMB      49              0.0000000000
      7423       101  POPC      C312          -13.7552805911        1.7358088915       -3.8792689095  MEMB      49              0.0000000000
      7424       101  POPC      H12X          -12.7689154531        1.8345914347       -3.3718820886  MEMB      49              0.0000000000
      7425       101  POPC      H12Y          -13.9345103966        0.6609338950       -4.1039498702  MEMB      49              0.0000000000
      7426       101  POPC      C313          -14.8236100043        2.2159109624       -2.8895769646  MEMB      49              0.0000000000
      7427       101  POPC      H13X          -14.7596575609        3.3180109892       -2.7781086171  MEMB      49              0.0000000000
      7428       101  POPC      H13Y          -14.5907655459        1.7820472746       -1.8897617678  MEMB      49              0.0000000000
      7429       101  POPC      C314          -16.2508810461        1.7879762197       -3.2563019286  MEMB      49              0.0000000000
      7430       101  POPC      H14X          -16.2867277071        0.6784351332       -3.3485770632  MEMB      49              0.0000000000
      7431       101  POPC      H14Y          -16.5272362384        2.2177768829       -4.2438365576  MEMB      49              0.0000000000
      7432       101  POPC      C315          -17.2648161230        2.2399217343       -2.1958483804  MEMB      49              0.0000000000
      7433       101  POPC      H15X          -17.2607790265        3.3510900079       -2.1420633648  MEMB      49              0.0000000000
      7434       101  POPC      H15Y          -16.9325800524        1.8714997655       -1.2038454594  MEMB      49              0.0000000000
      7435       101  POPC      C316          -18.6888563133        1.7520573726       -2.4458183439  MEMB      49              0.0000000000
      7436       101  POPC      H16X          -18.7094676622        0.6479686887       -2.5719193977  MEMB      49              0.0000000000
      7437       101  POPC      H16Y          -19.0952747772        2.2256183758       -3.3642270282  MEMB      49              0.0000000000
      7438       101  POPC      H16Z          -19.3530480262        2.0193831723       -1.5967500636  MEMB      49              0.0000000000
      7439       102  POPC      N              -1.9145058550       11.0177527038      -21.0882335060  MEMB      50              0.0000000000
      7440       102  POPC      C12            -0.6513393423       10.6180782758      -20.3467012627  MEMB      50              0.0000000000
      7441       102  POPC      H12A            0.0771094621       10.2246869620      -21.0425540423  MEMB      50              0.0000000000
      7442       102  POPC      H12B           -0.8876731510        9.7929294068      -19.6631614378  MEMB      50              0.0000000000
      7443       102  POPC      C13            -3.0181081258       11.0037773278      -20.0645904724  MEMB      50              0.0000000000
      7444       102  POPC      H13A           -2.6504829117       11.5837680644      -19.2159237865  MEMB      50              0.0000000000
      7445       102  POPC      H13B           -3.9384419539       11.4330017576      -20.4319171767  MEMB      50              0.0000000000
      7446       102  POPC      H13C           -3.2081357924       10.0057031011      -19.6945291575  MEMB      50              0.0000000000
      7447       102  POPC      C14            -1.8843122693       12.4136212365      -21.6399082427  MEMB      50              0.0000000000
      7448       102  POPC      H14A           -1.5640853281       13.0928338353      -20.8538653101  MEMB      50              0.0000000000
      7449       102  POPC      H14B           -1.2840526422       12.5429591668      -22.5302064521  MEMB      50              0.0000000000
      7450       102  POPC      H14C           -2.9051004292       12.6927042488      -21.8930856599  MEMB      50              0.0000000000
      7451       102  POPC      C15            -2.2675720060       10.0477434632      -22.1512494236  MEMB      50              0.0000000000
      7452       102  POPC      H15A           -2.3034705272        9.0248384894      -21.7729390282  MEMB      50              0.0000000000
      7453       102  POPC      H15B           -1.5294401721       10.0623456325      -22.9410850110  MEMB      50              0.0000000000
      7454       102  POPC      H15C           -3.2462171739       10.2722010873      -22.5773101641  MEMB      50              0.0000000000
      7455       102  POPC      C11            -0.0024884892       11.7058555166      -19.4557627912  MEMB      50              0.0000000000
      7456       102  POPC      H11A            0.2187306694       12.6211148409      -20.0385090930  MEMB      50              0.0000000000
      7457       102  POPC      H11B            0.9915191318       11.3403081109      -19.0966863083  MEMB      50              0.0000000000
      7458       102  POPC      P              -0.7878565811       11.1905469660      -17.0652795194  MEMB      50              0.0000000000
      7459       102  POPC      O13             0.5650791563       11.3185572871      -16.4848959609  MEMB      50              0.0000000000
      7460       102  POPC      O14            -1.2695240831        9.8397610537      -17.4442183103  MEMB      50              0.0000000000
      7461       102  POPC      O12            -0.8708702653       12.0644396515      -18.3849782758  MEMB      50              0.0000000000
      7462       102  POPC      O11            -1.8745596959       11.8933525763      -16.1392429007  MEMB      50              0.0000000000
      7463       102  POPC      C1             -3.2124850478       12.0050248869      -16.6577149818  MEMB      50              0.0000000000
      7464       102  POPC      HA             -3.6137808427       11.0036537573      -16.9415605247  MEMB      50              0.0000000000
      7465       102  POPC      HB             -3.2170747661       12.6438931823      -17.5702181910  MEMB      50              0.0000000000
      7466       102  POPC      C2             -4.2243060343       12.6353291722      -15.6386369399  MEMB      50              0.0000000000
      7467       102  POPC      HS             -5.1317462454       12.9325628413      -16.2102123055  MEMB      50              0.0000000000
      7468       102  POPC      O21            -3.7229064649       13.7815322242      -14.9360822545  MEMB      50              0.0000000000
      7469       102  POPC      C21            -3.0193647715       14.6763444584      -15.5847470862  MEMB      50              0.0000000000
      7470       102  POPC      O22            -3.0415062893       14.9161254950      -16.7811425812  MEMB      50              0.0000000000
      7471       102  POPC      C22            -2.2224150241       15.4635046190      -14.5347559286  MEMB      50              0.0000000000
      7472       102  POPC      H2R            -2.0091873675       14.7997758898      -13.6719420188  MEMB      50              0.0000000000
      7473       102  POPC      H2S            -2.8969251679       16.2747339612      -14.1946793645  MEMB      50              0.0000000000
      7474       102  POPC      C3             -4.6771227315       11.6035982258      -14.5638968925  MEMB      50              0.0000000000
      7475       102  POPC      HX             -5.2672660563       10.7997879498      -15.0605685327  MEMB      50              0.0000000000
      7476       102  POPC      HY             -5.3535290468       12.1199676153      -13.8461830481  MEMB      50              0.0000000000
      7477       102  POPC      O31            -3.5202167224       11.1192471411      -13.8575376448  MEMB      50              0.0000000000
      7478       102  POPC      C31            -3.2259086415        9.8316437698      -13.9786315990  MEMB      50              0.0000000000
      7479       102  POPC      O32            -4.0352486096        8.9421218376      -14.1875991758  MEMB      50              0.0000000000
      7480       102  POPC      C32            -1.7172718224        9.6276228650      -13.8448982160  MEMB      50              0.0000000000
      7481       102  POPC      H2X            -1.2099752490       10.5981531138      -14.0295219698  MEMB      50              0.0000000000
      7482       102  POPC      H2Y            -1.4168096776        8.9350669065      -14.6587870455  MEMB      50              0.0000000000
      7483       102  POPC      C23            -0.9049457475       16.0938559648      -15.0437946762  MEMB      50              0.0000000000
      7484       102  POPC      H3R            -0.5500937588       16.8148096678      -14.2718020396  MEMB      50              0.0000000000
      7485       102  POPC      H3S            -1.1129839689       16.6662367421      -15.9757360087  MEMB      50              0.0000000000
      7486       102  POPC      C24             0.2263331765       15.0860612919      -15.2987948313  MEMB      50              0.0000000000
      7487       102  POPC      H4R             1.0917444855       15.6324582900      -15.7208533834  MEMB      50              0.0000000000
      7488       102  POPC      H4S            -0.0998535722       14.3328424229      -16.0557009905  MEMB      50              0.0000000000
      7489       102  POPC      C25             0.7707944919       14.3450930610      -14.0682422386  MEMB      50              0.0000000000
      7490       102  POPC      H5R             0.0149557199       13.5966847692      -13.7394244487  MEMB      50              0.0000000000
      7491       102  POPC      H5S             0.9468761996       15.0545265288      -13.2318784520  MEMB      50              0.0000000000
      7492       102  POPC      C26             2.0857869900       13.6230255824      -14.4143099276  MEMB      50              0.0000000000
      7493       102  POPC      H6R             2.8114723304       14.3563746588      -14.8278908967  MEMB      50              0.0000000000
      7494       102  POPC      H6S             1.8625451472       12.8745224073      -15.2104592617  MEMB      50              0.0000000000
      7495       102  POPC      C27             2.7444244555       12.8811546874      -13.2452498346  MEMB      50              0.0000000000
      7496       102  POPC      H7R             3.0704610852       13.6148550539      -12.4756031238  MEMB      50              0.0000000000
      7497       102  POPC      H7S             3.6589174376       12.3777665739      -13.6382840863  MEMB      50              0.0000000000
      7498       102  POPC      C28             1.8126053038       11.8439190912      -12.5909878813  MEMB      50              0.0000000000
      7499       102  POPC      H8R             1.3014453801       11.2617799112      -13.3934928392  MEMB      50              0.0000000000
      7500       102  POPC      H8S             1.0196656387       12.3781409423      -12.0213372141  MEMB      50              0.0000000000
      7501       102  POPC      C29             2.6002502648       10.9220178177      -11.7013395194  MEMB      50              0.0000000000
      7502       102  POPC      H91             2.8702205603        9.9688061131      -12.1771450827  MEMB      50              0.0000000000
      7503       102  POPC      C210            2.9757280720       11.1650332755      -10.4342047378  MEMB      50              0.0000000000
      7504       102  POPC      H101            3.5987036641       10.4187280122       -9.9238670793  MEMB      50              0.0000000000
      7505       102  POPC      C211            2.6910232130       12.4083860446       -9.6245469671  MEMB      50              0.0000000000
      7506       102  POPC      H11R            2.1860181886       13.1948834812      -10.2326807652  MEMB      50              0.0000000000
      7507       102  POPC      H11S            3.6483849161       12.8544331289       -9.2730212928  MEMB      50              0.0000000000
      7508       102  POPC      C212            1.8035523484       12.1225065497       -8.3922461553  MEMB      50              0.0000000000
      7509       102  POPC      H12R            0.7650365530       11.9050774752       -8.7305222116  MEMB      50              0.0000000000
      7510       102  POPC      H12S            1.7622297847       13.0490134423       -7.7776701865  MEMB      50              0.0000000000
      7511       102  POPC      C213            2.3042119448       10.9502071841       -7.5265538207  MEMB      50              0.0000000000
      7512       102  POPC      H13R            3.3875451090       11.0987786555       -7.3212325880  MEMB      50              0.0000000000
      7513       102  POPC      H13S            2.1716899496       10.0160232220       -8.1184002678  MEMB      50              0.0000000000
      7514       102  POPC      C214            1.5590885195       10.7759785766       -6.1934402237  MEMB      50              0.0000000000
      7515       102  POPC      H14R            1.8324236458        9.7939224945       -5.7504046689  MEMB      50              0.0000000000
      7516       102  POPC      H14S            0.4610171155       10.7593964493       -6.3830438634  MEMB      50              0.0000000000
      7517       102  POPC      C215            1.8803858659       11.8739144049       -5.1690676411  MEMB      50              0.0000000000
      7518       102  POPC      H15R            1.4840709625       12.8412912153       -5.5530794282  MEMB      50              0.0000000000
      7519       102  POPC      H15S            2.9829778492       11.9820647113       -5.0621702872  MEMB      50              0.0000000000
      7520       102  POPC      C216            1.2663160555       11.6215593639       -3.7814649775  MEMB      50              0.0000000000
      7521       102  POPC      H16R            0.1855931147       11.3792321580       -3.8894198766  MEMB      50              0.0000000000
      7522       102  POPC      H16S            1.3366585810       12.5655097514       -3.1929385613  MEMB      50              0.0000000000
      7523       102  POPC      C217            1.9670201822       10.5166509034       -2.9770567461  MEMB      50              0.0000000000
      7524       102  POPC      H17R            3.0618465397       10.7256196023       -2.9597440420  MEMB      50              0.0000000000
      7525       102  POPC      H17S            1.8185809237        9.5363754251       -3.4813522316  MEMB      50              0.0000000000
      7526       102  POPC      C218            1.4569060710       10.4149720323       -1.5358722142  MEMB      50              0.0000000000
      7527       102  POPC      H18R            1.5657370410       11.3931676888       -1.0194374307  MEMB      50              0.0000000000
      7528       102  POPC      H18S            2.0344597063        9.6521399423       -0.9712350125  MEMB      50              0.0000000000
      7529       102  POPC      H18T            0.3829781876       10.1296894291       -1.5214517432  MEMB      50              0.0000000000
      7530       102  POPC      C33            -1.2632884413        9.0579111897      -12.4824710853  MEMB      50              0.0000000000
      7531       102  POPC      H3X            -0.1669786259        8.8637926579      -12.5629377327  MEMB      50              0.0000000000
      7532       102  POPC      H3Y            -1.7638695210        8.0936059107      -12.2560442911  MEMB      50              0.0000000000
      7533       102  POPC      C34            -1.4710165194       10.0645967575      -11.3493107038  MEMB      50              0.0000000000
      7534       102  POPC      H4X            -1.4808090828       11.0973241356      -11.7687578775  MEMB      50              0.0000000000
      7535       102  POPC      H4Y            -0.6128386053       10.0105922816      -10.6405453159  MEMB      50              0.0000000000
      7536       102  POPC      C35            -2.7588361317        9.8056790503      -10.5644224505  MEMB      50              0.0000000000
      7537       102  POPC      H5X            -2.6273949372        8.8546166471      -10.0040613113  MEMB      50              0.0000000000
      7538       102  POPC      H5Y            -3.6217080280        9.6799153900      -11.2562773492  MEMB      50              0.0000000000
      7539       102  POPC      C36            -3.0617686843       10.9505561502       -9.5961296972  MEMB      50              0.0000000000
      7540       102  POPC      H6X            -3.5697578509       11.7807329462      -10.1382983163  MEMB      50              0.0000000000
      7541       102  POPC      H6Y            -2.0922549889       11.3546975531       -9.2232435201  MEMB      50              0.0000000000
      7542       102  POPC      C37            -3.8870793074       10.5016682629       -8.3895910207  MEMB      50              0.0000000000
      7543       102  POPC      H7X            -4.1019608786        9.4164056875       -8.4651202941  MEMB      50              0.0000000000
      7544       102  POPC      H7Y            -4.8583156618       11.0422045556       -8.3891964015  MEMB      50              0.0000000000
      7545       102  POPC      C38            -3.1630781042       10.7769055665       -7.0662556628  MEMB      50              0.0000000000
      7546       102  POPC      H8X            -2.9382079463       11.8666246670       -7.0137268301  MEMB      50              0.0000000000
      7547       102  POPC      H8Y            -2.1894216464       10.2364394716       -7.0499895811  MEMB      50              0.0000000000
      7548       102  POPC      C39            -4.0065791198       10.3597993197       -5.8600861170  MEMB      50              0.0000000000
      7549       102  POPC      H9X            -4.0491766452        9.2480475221       -5.8221356865  MEMB      50              0.0000000000
      7550       102  POPC      H9Y            -5.0445784829       10.7344918030       -6.0025821696  MEMB      50              0.0000000000
      7551       102  POPC      C310           -3.4965283589       10.8838870957       -4.5101383402  MEMB      50              0.0000000000
      7552       102  POPC      H10X           -2.4822300616       10.4854431784       -4.2865200412  MEMB      50              0.0000000000
      7553       102  POPC      H10Y           -4.1902763364       10.4946382872       -3.7332954404  MEMB      50              0.0000000000
      7554       102  POPC      C311           -3.4864275287       12.4131641976       -4.3763847797  MEMB      50              0.0000000000
      7555       102  POPC      H11X           -4.2882434452       12.8418319759       -5.0205435718  MEMB      50              0.0000000000
      7556       102  POPC      H11Y           -2.5121136977       12.8133966277       -4.7363083711  MEMB      50              0.0000000000
      7557       102  POPC      C312           -3.7426508795       12.8793193619       -2.9344081797  MEMB      50              0.0000000000
      7558       102  POPC      H12X           -4.8019659076       12.6532844908       -2.6724280589  MEMB      50              0.0000000000
      7559       102  POPC      H12Y           -3.6178637654       13.9820009114       -2.8867196304  MEMB      50              0.0000000000
      7560       102  POPC      C313           -2.8265272368       12.2402416004       -1.8787063777  MEMB      50              0.0000000000
      7561       102  POPC      H13X           -1.8010599106       12.1403342251       -2.3021019648  MEMB      50              0.0000000000
      7562       102  POPC      H13Y           -3.1927021959       11.2149047903       -1.6463458955  MEMB      50              0.0000000000
      7563       102  POPC      C314           -2.7354283990       13.0575864884       -0.5752918356  MEMB      50              0.0000000000
      7564       102  POPC      H14X           -2.1765552904       13.9958833949       -0.7979855794  MEMB      50              0.0000000000
      7565       102  POPC      H14Y           -2.1390874717       12.4858292063        0.1723774428  MEMB      50              0.0000000000
      7566       102  POPC      C315           -4.0968861879       13.4328432314        0.0359970992  MEMB      50              0.0000000000
      7567       102  POPC      H15X           -4.5713634154       12.5266710713        0.4753618558  MEMB      50              0.0000000000
      7568       102  POPC      H15Y           -4.7744733336       13.7998575634       -0.7658632911  MEMB      50              0.0000000000
      7569       102  POPC      C316           -4.0137015688       14.5359706146        1.0943410712  MEMB      50              0.0000000000
      7570       102  POPC      H16X           -3.5959047578       14.1565337619        2.0504791000  MEMB      50              0.0000000000
      7571       102  POPC      H16Y           -5.0248377218       14.9535372998        1.2905210946  MEMB      50              0.0000000000
      7572       102  POPC      H16Z           -3.3681343529       15.3657814721        0.7335725163  MEMB      50              0.0000000000
      7573       103  POPC      N             -11.9441410765       -8.5583695116      -18.2792213150  MEMB      51              0.0000000000
      7574       103  POPC      C12           -10.6058651520       -9.0250837703      -17.7012926568  MEMB      51              0.0000000000
      7575       103  POPC      H12A          -10.5298021440      -10.1030506643      -17.7937722186  MEMB      51              0.0000000000
      7576       103  POPC      H12B          -10.5516363526       -8.8320741837      -16.6376460288  MEMB      51              0.0000000000
      7577       103  POPC      C13           -11.9460267719       -7.0628759921      -18.2392685826  MEMB      51              0.0000000000
      7578       103  POPC      H13A          -11.6160801651       -6.6881002027      -17.2760031695  MEMB      51              0.0000000000
      7579       103  POPC      H13B          -11.2060840148       -6.7061916488      -18.9650747711  MEMB      51              0.0000000000
      7580       103  POPC      H13C          -12.8984442282       -6.6096358418      -18.4843633995  MEMB      51              0.0000000000
      7581       103  POPC      C14           -12.0070171441       -8.9734536942      -19.7188192183  MEMB      51              0.0000000000
      7582       103  POPC      H14A          -11.2034599589       -8.4388811502      -20.2371757706  MEMB      51              0.0000000000
      7583       103  POPC      H14B          -11.7660091609      -10.0235610580      -19.8746801250  MEMB      51              0.0000000000
      7584       103  POPC      H14C          -12.9301943031       -8.7280001582      -20.2070598956  MEMB      51              0.0000000000
      7585       103  POPC      C15           -13.1055009827       -9.1407273776      -17.5407926739  MEMB      51              0.0000000000
      7586       103  POPC      H15A          -13.1261268051       -8.8008543875      -16.5131026531  MEMB      51              0.0000000000
      7587       103  POPC      H15B          -13.0430539806      -10.2253304569      -17.5389892796  MEMB      51              0.0000000000
      7588       103  POPC      H15C          -14.0417013797       -8.8763205921      -18.0264466296  MEMB      51              0.0000000000
      7589       103  POPC      C11            -9.3106152831       -8.4930728284      -18.3643653969  MEMB      51              0.0000000000
      7590       103  POPC      H11A           -8.4246350831       -8.7625425514      -17.7489870566  MEMB      51              0.0000000000
      7591       103  POPC      H11B           -9.3024106101       -7.3823702819      -18.4064423389  MEMB      51              0.0000000000
      7592       103  POPC      P              -8.5957747028      -10.4476915992      -19.9854242864  MEMB      51              0.0000000000
      7593       103  POPC      O13            -7.3474142079      -10.2930184322      -20.7650267483  MEMB      51              0.0000000000
      7594       103  POPC      O14            -9.6594104536      -11.1896656778      -20.7086166513  MEMB      51              0.0000000000
      7595       103  POPC      O12            -9.1851084287       -9.0087838312      -19.6797369203  MEMB      51              0.0000000000
      7596       103  POPC      O11            -8.3256842335      -11.0896611352      -18.5609610889  MEMB      51              0.0000000000
      7597       103  POPC      C1             -9.2537380479      -11.9674069806      -17.9456208076  MEMB      51              0.0000000000
      7598       103  POPC      HA             -8.9783258717      -13.0024706073      -18.2507269031  MEMB      51              0.0000000000
      7599       103  POPC      HB            -10.3078543224      -11.8031343073      -18.2697996431  MEMB      51              0.0000000000
      7600       103  POPC      C2             -9.1961461129      -11.9135927352      -16.3889616725  MEMB      51              0.0000000000
      7601       103  POPC      HS             -9.1676484217      -12.9652940316      -16.0571740889  MEMB      51              0.0000000000
      7602       103  POPC      O21           -10.3154669944      -11.1707414435      -15.8530244434  MEMB      51              0.0000000000
      7603       103  POPC      C21           -11.0851174194      -11.9045210777      -15.0503454378  MEMB      51              0.0000000000
      7604       103  POPC      O22           -11.0691375972      -13.1149974546      -14.9586010744  MEMB      51              0.0000000000
      7605       103  POPC      C22           -11.9794680465      -10.9940849340      -14.2402353871  MEMB      51              0.0000000000
      7606       103  POPC      H2R           -12.8632865143      -11.5658870057      -13.8901503739  MEMB      51              0.0000000000
      7607       103  POPC      H2S           -12.3277966491      -10.1832985973      -14.9130930125  MEMB      51              0.0000000000
      7608       103  POPC      C3             -7.8797140734      -11.3318370155      -15.7702491070  MEMB      51              0.0000000000
      7609       103  POPC      HX             -7.0815626047      -11.9488012450      -16.2532597435  MEMB      51              0.0000000000
      7610       103  POPC      HY             -7.9122017773      -11.5757557256      -14.6799966498  MEMB      51              0.0000000000
      7611       103  POPC      O31            -7.6191922369       -9.9132658143      -15.9278401254  MEMB      51              0.0000000000
      7612       103  POPC      C31            -6.3465813002       -9.6675234741      -15.5600247937  MEMB      51              0.0000000000
      7613       103  POPC      O32            -5.5796975660      -10.5281204865      -15.1622432295  MEMB      51              0.0000000000
      7614       103  POPC      C32            -6.0347625671       -8.1882119216      -15.6220206037  MEMB      51              0.0000000000
      7615       103  POPC      H2X            -6.2664240369       -7.8143812494      -16.6402098381  MEMB      51              0.0000000000
      7616       103  POPC      H2Y            -4.9508543203       -8.0802826540      -15.4362405190  MEMB      51              0.0000000000
      7617       103  POPC      C23           -11.2362620123      -10.3765184250      -13.0379891460  MEMB      51              0.0000000000
      7618       103  POPC      H3R           -10.1619866173      -10.1908605914      -13.2721559923  MEMB      51              0.0000000000
      7619       103  POPC      H3S           -11.2803886404      -11.0597757838      -12.1589696539  MEMB      51              0.0000000000
      7620       103  POPC      C24           -11.8918948103       -9.0404257836      -12.7013136967  MEMB      51              0.0000000000
      7621       103  POPC      H4R           -12.9829031062       -9.2150658263      -12.5644862400  MEMB      51              0.0000000000
      7622       103  POPC      H4S           -11.7460266107       -8.3576255710      -13.5708644135  MEMB      51              0.0000000000
      7623       103  POPC      C25           -11.3420652788       -8.3323142034      -11.4633693381  MEMB      51              0.0000000000
      7624       103  POPC      H5R           -11.5505743888       -7.2409293917      -11.5379700877  MEMB      51              0.0000000000
      7625       103  POPC      H5S           -10.2434620516       -8.4495524336      -11.4430452015  MEMB      51              0.0000000000
      7626       103  POPC      C26           -11.9567218396       -8.8209882873      -10.1503737566  MEMB      51              0.0000000000
      7627       103  POPC      H6R           -11.3295266366       -9.6616603592       -9.7839218340  MEMB      51              0.0000000000
      7628       103  POPC      H6S           -12.9865666285       -9.2112245950      -10.3014217892  MEMB      51              0.0000000000
      7629       103  POPC      C27           -12.0210723968       -7.7180841320       -9.0827832876  MEMB      51              0.0000000000
      7630       103  POPC      H7R           -12.9300017729       -7.0914779030       -9.2109493368  MEMB      51              0.0000000000
      7631       103  POPC      H7S           -11.1461001767       -7.0455119707       -9.2218893515  MEMB      51              0.0000000000
      7632       103  POPC      C28           -11.9362446272       -8.2838665249       -7.6619584955  MEMB      51              0.0000000000
      7633       103  POPC      H8R           -11.7104675106       -7.4600865029       -6.9487282797  MEMB      51              0.0000000000
      7634       103  POPC      H8S           -11.0911264565       -8.9958159576       -7.6563306812  MEMB      51              0.0000000000
      7635       103  POPC      C29           -13.1486624550       -9.0050547855       -7.1937452149  MEMB      51              0.0000000000
      7636       103  POPC      H91           -13.9174780315       -8.3692034141       -6.7557869774  MEMB      51              0.0000000000
      7637       103  POPC      C210          -13.3292787268      -10.3246996184       -7.1982052418  MEMB      51              0.0000000000
      7638       103  POPC      H101          -14.2631758679      -10.6928891909       -6.7603544703  MEMB      51              0.0000000000
      7639       103  POPC      C211          -12.3616360794      -11.3814239274       -7.6742152659  MEMB      51              0.0000000000
      7640       103  POPC      H11R          -11.4376759775      -10.9599769166       -8.1256538572  MEMB      51              0.0000000000
      7641       103  POPC      H11S          -12.8225438372      -12.0206403412       -8.4565665107  MEMB      51              0.0000000000
      7642       103  POPC      C212          -11.9361967226      -12.2262426382       -6.4713509538  MEMB      51              0.0000000000
      7643       103  POPC      H12R          -12.8203139647      -12.6068383270       -5.9124494265  MEMB      51              0.0000000000
      7644       103  POPC      H12S          -11.3618145885      -11.5619648653       -5.7839885542  MEMB      51              0.0000000000
      7645       103  POPC      C213          -11.0691400651      -13.4260794598       -6.8596772212  MEMB      51              0.0000000000
      7646       103  POPC      H13R          -10.1870524709      -13.0673038927       -7.4385751642  MEMB      51              0.0000000000
      7647       103  POPC      H13S          -11.6492012780      -14.1146553066       -7.5157000557  MEMB      51              0.0000000000
      7648       103  POPC      C214          -10.5799031541      -14.1947206711       -5.6277069476  MEMB      51              0.0000000000
      7649       103  POPC      H14R           -9.8867843726      -14.9963662105       -5.9689707708  MEMB      51              0.0000000000
      7650       103  POPC      H14S          -11.4372820772      -14.6976426725       -5.1284392479  MEMB      51              0.0000000000
      7651       103  POPC      C215           -9.8589433749      -13.3061847538       -4.5979928773  MEMB      51              0.0000000000
      7652       103  POPC      H15R          -10.6103656815      -12.7663544805       -3.9799205976  MEMB      51              0.0000000000
      7653       103  POPC      H15S           -9.2441543261      -12.5482414209       -5.1310177408  MEMB      51              0.0000000000
      7654       103  POPC      C216           -8.9460817942      -14.1483447130       -3.7054877664  MEMB      51              0.0000000000
      7655       103  POPC      H16R           -8.2178310432      -14.6641969060       -4.3698289552  MEMB      51              0.0000000000
      7656       103  POPC      H16S           -9.5846489286      -14.9204353620       -3.2271327989  MEMB      51              0.0000000000
      7657       103  POPC      C217           -8.1738320130      -13.3965516275       -2.6152196830  MEMB      51              0.0000000000
      7658       103  POPC      H17R           -7.6338648517      -12.5355374027       -3.0672209792  MEMB      51              0.0000000000
      7659       103  POPC      H17S           -7.4033728447      -14.0905257462       -2.2020831161  MEMB      51              0.0000000000
      7660       103  POPC      C218           -9.0553811768      -12.9103716546       -1.4643986700  MEMB      51              0.0000000000
      7661       103  POPC      H18R           -9.6158058938      -13.7549000409       -1.0097981818  MEMB      51              0.0000000000
      7662       103  POPC      H18S           -9.7935476859      -12.1750873630       -1.8359384355  MEMB      51              0.0000000000
      7663       103  POPC      H18T           -8.4452491210      -12.4255127028       -0.6731908989  MEMB      51              0.0000000000
      7664       103  POPC      C33            -6.8294579262       -7.4205078296      -14.5513820759  MEMB      51              0.0000000000
      7665       103  POPC      H3X            -7.9167089575       -7.6108530715      -14.6926695442  MEMB      51              0.0000000000
      7666       103  POPC      H3Y            -6.6772810349       -6.3371368224      -14.7325703815  MEMB      51              0.0000000000
      7667       103  POPC      C34            -6.4067697728       -7.7909549721      -13.1149277248  MEMB      51              0.0000000000
      7668       103  POPC      H4X            -5.4817766950       -7.2420580409      -12.8383331034  MEMB      51              0.0000000000
      7669       103  POPC      H4Y            -6.1698666253       -8.8776791173      -13.0637328699  MEMB      51              0.0000000000
      7670       103  POPC      C35            -7.5083077184       -7.5196520011      -12.0773510791  MEMB      51              0.0000000000
      7671       103  POPC      H5X            -8.4407193158       -7.9959723764      -12.4485743265  MEMB      51              0.0000000000
      7672       103  POPC      H5Y            -7.6807632547       -6.4239806294      -12.0028701632  MEMB      51              0.0000000000
      7673       103  POPC      C36            -7.2101222725       -8.0914396459      -10.6787973555  MEMB      51              0.0000000000
      7674       103  POPC      H6X            -6.3274279645       -7.5503093418      -10.2704376664  MEMB      51              0.0000000000
      7675       103  POPC      H6Y            -6.9200298410       -9.1633360537      -10.7638351269  MEMB      51              0.0000000000
      7676       103  POPC      C37            -8.4105102958       -7.9614546077       -9.7109661900  MEMB      51              0.0000000000
      7677       103  POPC      H7X            -8.9458712152       -8.9366952453       -9.6612276796  MEMB      51              0.0000000000
      7678       103  POPC      H7Y            -9.1065583957       -7.1912508045      -10.1040361263  MEMB      51              0.0000000000
      7679       103  POPC      C38            -7.9505193428       -7.5456376664       -8.3128970722  MEMB      51              0.0000000000
      7680       103  POPC      H8X            -7.3765879913       -6.6105620060       -8.4627782007  MEMB      51              0.0000000000
      7681       103  POPC      H8Y            -7.3337314985       -8.4190847315       -8.0317372126  MEMB      51              0.0000000000
      7682       103  POPC      C39            -8.9671399227       -7.3312272480       -7.1821344035  MEMB      51              0.0000000000
      7683       103  POPC      H9X            -9.4740747590       -8.2987795003       -7.0224590048  MEMB      51              0.0000000000
      7684       103  POPC      H9Y            -9.7115025677       -6.5652727294       -7.4956766187  MEMB      51              0.0000000000
      7685       103  POPC      C310           -8.4176408001       -6.9680382541       -5.7832887222  MEMB      51              0.0000000000
      7686       103  POPC      H10X           -9.1391223913       -6.2582654485       -5.3087616398  MEMB      51              0.0000000000
      7687       103  POPC      H10Y           -7.4578972613       -6.4294027411       -5.8511673916  MEMB      51              0.0000000000
      7688       103  POPC      C311           -8.3203899998       -8.1853420569       -4.8344492921  MEMB      51              0.0000000000
      7689       103  POPC      H11X           -7.4539882891       -8.0700397960       -4.1446670678  MEMB      51              0.0000000000
      7690       103  POPC      H11Y           -8.1713050684       -9.1176128419       -5.4230150178  MEMB      51              0.0000000000
      7691       103  POPC      C312           -9.5925746557       -8.3334841249       -3.9757872662  MEMB      51              0.0000000000
      7692       103  POPC      H12X          -10.4780648062       -8.2451580267       -4.6460891251  MEMB      51              0.0000000000
      7693       103  POPC      H12Y           -9.6392101650       -7.4975578288       -3.2439531369  MEMB      51              0.0000000000
      7694       103  POPC      C313           -9.7331812827       -9.6644175521       -3.2150278870  MEMB      51              0.0000000000
      7695       103  POPC      H13X           -8.9806216759       -9.7308497848       -2.4004151547  MEMB      51              0.0000000000
      7696       103  POPC      H13Y           -9.5258775451      -10.4978108812       -3.9225770400  MEMB      51              0.0000000000
      7697       103  POPC      C314          -11.1591793982       -9.8561143589       -2.6584983015  MEMB      51              0.0000000000
      7698       103  POPC      H14X          -11.3162172717      -10.9084681674       -2.3399716135  MEMB      51              0.0000000000
      7699       103  POPC      H14Y          -11.8759159676       -9.6622877750       -3.4887284455  MEMB      51              0.0000000000
      7700       103  POPC      C315          -11.4992755876       -8.9445920024       -1.4706160531  MEMB      51              0.0000000000
      7701       103  POPC      H15X          -12.5988189003       -8.9887071989       -1.2909808647  MEMB      51              0.0000000000
      7702       103  POPC      H15Y          -11.2557749782       -7.8925746600       -1.7382192509  MEMB      51              0.0000000000
      7703       103  POPC      C316          -10.7864446228       -9.3266394012       -0.1684659817  MEMB      51              0.0000000000
      7704       103  POPC      H16X          -11.0658738487      -10.3568522458        0.1409447573  MEMB      51              0.0000000000
      7705       103  POPC      H16Y          -11.0680410618       -8.6346982801        0.6530830323  MEMB      51              0.0000000000
      7706       103  POPC      H16Z           -9.6842090033       -9.2841344552       -0.2893472150  MEMB      51              0.0000000000
      7707       104  POPC      N              13.2490235131        6.1124292463      -19.7195296934  MEMB      52              0.0000000000
      7708       104  POPC      C12            13.3199784539        7.3470919707      -18.8587435051  MEMB      52              0.0000000000
      7709       104  POPC      H12A           14.3552632874        7.4908597353      -18.5256895997  MEMB      52              0.0000000000
      7710       104  POPC      H12B           12.7536107443        7.1787525581      -17.9532939828  MEMB      52              0.0000000000
      7711       104  POPC      C13            11.9116725816        5.9627868960      -20.3738244997  MEMB      52              0.0000000000
      7712       104  POPC      H13A           11.5267197228        6.9433210696      -20.6388330693  MEMB      52              0.0000000000
      7713       104  POPC      H13B           11.9863474307        5.3581899027      -21.2732073443  MEMB      52              0.0000000000
      7714       104  POPC      H13C           11.2003517675        5.4922995607      -19.7019878810  MEMB      52              0.0000000000
      7715       104  POPC      C14            14.3211474953        6.2052075451      -20.7608705548  MEMB      52              0.0000000000
      7716       104  POPC      H14A           14.3664328582        7.2328759086      -21.1439059537  MEMB      52              0.0000000000
      7717       104  POPC      H14B           15.3007830670        5.9960369556      -20.3369583913  MEMB      52              0.0000000000
      7718       104  POPC      H14C           14.0966511483        5.5836727068      -21.6201069285  MEMB      52              0.0000000000
      7719       104  POPC      C15            13.4727909927        4.9567817048      -18.7948963784  MEMB      52              0.0000000000
      7720       104  POPC      H15A           12.6745983344        4.8819258237      -18.0550203583  MEMB      52              0.0000000000
      7721       104  POPC      H15B           14.3858080893        5.1093122081      -18.2300382729  MEMB      52              0.0000000000
      7722       104  POPC      H15C           13.5124077874        4.0177671016      -19.3317979906  MEMB      52              0.0000000000
      7723       104  POPC      C11            12.8866487114        8.6711089672      -19.4986313418  MEMB      52              0.0000000000
      7724       104  POPC      H11A           12.6172921735        9.3547699895      -18.6611087808  MEMB      52              0.0000000000
      7725       104  POPC      H11B           11.9654695365        8.5591410018      -20.1039272241  MEMB      52              0.0000000000
      7726       104  POPC      P              15.2907766079        9.7315722583      -19.7522579424  MEMB      52              0.0000000000
      7727       104  POPC      O13            16.0790064444       10.2746664098      -20.8751877165  MEMB      52              0.0000000000
      7728       104  POPC      O14            15.9348564364        8.6929559421      -18.9094633683  MEMB      52              0.0000000000
      7729       104  POPC      O12            13.9107759651        9.1971469039      -20.3323384566  MEMB      52              0.0000000000
      7730       104  POPC      O11            14.8196235656       10.9286510049      -18.8606639559  MEMB      52              0.0000000000
      7731       104  POPC      C1             13.7034220049       11.7698249162      -19.1844172671  MEMB      52              0.0000000000
      7732       104  POPC      HA             12.7618554715       11.1894821022      -19.2910117849  MEMB      52              0.0000000000
      7733       104  POPC      HB             13.8483995346       12.3146096565      -20.1442019775  MEMB      52              0.0000000000
      7734       104  POPC      C2             13.4376186267       12.7485727945      -18.0203643649  MEMB      52              0.0000000000
      7735       104  POPC      HS             13.9860625631       13.6907828218      -18.2620522777  MEMB      52              0.0000000000
      7736       104  POPC      O21            13.9179759698       12.0960521114      -16.8223098598  MEMB      52              0.0000000000
      7737       104  POPC      C21            14.8283027377       12.7557996478      -16.1476048290  MEMB      52              0.0000000000
      7738       104  POPC      O22            15.0632246191       13.9463915763      -16.2838467888  MEMB      52              0.0000000000
      7739       104  POPC      C22            15.6170245815       11.8251114270      -15.1968683720  MEMB      52              0.0000000000
      7740       104  POPC      H2R            16.6699594230       11.8389012109      -15.5443326906  MEMB      52              0.0000000000
      7741       104  POPC      H2S            15.2886497613       10.7874352693      -15.3345790569  MEMB      52              0.0000000000
      7742       104  POPC      C3             11.9212689729       13.0775481118      -17.9017806025  MEMB      52              0.0000000000
      7743       104  POPC      HX             11.5597362302       13.4797088500      -18.8719000588  MEMB      52              0.0000000000
      7744       104  POPC      HY             11.8180639615       13.8656083074      -17.1178626408  MEMB      52              0.0000000000
      7745       104  POPC      O31            11.1989278973       11.8754590529      -17.5737243807  MEMB      52              0.0000000000
      7746       104  POPC      C31            10.0678638448       12.0335135129      -16.8812571515  MEMB      52              0.0000000000
      7747       104  POPC      O32             9.4833873664       13.0956921305      -16.7728403712  MEMB      52              0.0000000000
      7748       104  POPC      C32             9.6009657443       10.6313833067      -16.3939972378  MEMB      52              0.0000000000
      7749       104  POPC      H2X            10.4774119232       10.0224455970      -16.4683754974  MEMB      52              0.0000000000
      7750       104  POPC      H2Y             8.9531243092       10.3298382158      -17.2421755382  MEMB      52              0.0000000000
      7751       104  POPC      C23            15.5657185450       12.2758374676      -13.7029788191  MEMB      52              0.0000000000
      7752       104  POPC      H3R            14.6302889758       12.7949815882      -13.4555908237  MEMB      52              0.0000000000
      7753       104  POPC      H3S            16.3625651784       13.0488664515      -13.6187036057  MEMB      52              0.0000000000
      7754       104  POPC      C24            15.8253333356       11.2119071128      -12.6041363764  MEMB      52              0.0000000000
      7755       104  POPC      H4R            16.5067138621       11.7346865744      -11.8968098297  MEMB      52              0.0000000000
      7756       104  POPC      H4S            16.3741309226       10.3507063513      -13.0411883937  MEMB      52              0.0000000000
      7757       104  POPC      C25            14.6906426102       10.6782517175      -11.6722086227  MEMB      52              0.0000000000
      7758       104  POPC      H5R            15.1931654957       10.0501561996      -10.8998307247  MEMB      52              0.0000000000
      7759       104  POPC      H5S            14.0008483415        9.9807717240      -12.1884715893  MEMB      52              0.0000000000
      7760       104  POPC      C26            13.8753019515       11.7217516744      -10.8765123354  MEMB      52              0.0000000000
      7761       104  POPC      H6R            13.1172532648       12.1500249583      -11.5557740800  MEMB      52              0.0000000000
      7762       104  POPC      H6S            14.5442222308       12.5431664103      -10.5456301604  MEMB      52              0.0000000000
      7763       104  POPC      C27            13.1985806915       11.0831875703       -9.6402325604  MEMB      52              0.0000000000
      7764       104  POPC      H7R            13.9954551005       10.7533492213       -8.9375828297  MEMB      52              0.0000000000
      7765       104  POPC      H7S            12.6533342038       10.1773067147       -9.9907528391  MEMB      52              0.0000000000
      7766       104  POPC      C28            12.1423941708       11.9103950967       -8.8676909997  MEMB      52              0.0000000000
      7767       104  POPC      H8R            11.7725414519       11.2487249055       -8.0470666922  MEMB      52              0.0000000000
      7768       104  POPC      H8S            11.2763558884       12.0778157604       -9.5435491000  MEMB      52              0.0000000000
      7769       104  POPC      C29            12.6077137059       13.2266224801       -8.3000288376  MEMB      52              0.0000000000
      7770       104  POPC      H91            13.3184419229       13.7815696522       -8.9279289008  MEMB      52              0.0000000000
      7771       104  POPC      C210           12.2278512508       13.7563175174       -7.1197738436  MEMB      52              0.0000000000
      7772       104  POPC      H101           12.6661567384       14.7133833713       -6.7978486668  MEMB      52              0.0000000000
      7773       104  POPC      C211           11.2634189018       13.1429714683       -6.1317774359  MEMB      52              0.0000000000
      7774       104  POPC      H11R           10.4796852231       12.5492327546       -6.6457971148  MEMB      52              0.0000000000
      7775       104  POPC      H11S           10.7163904474       13.9469367565       -5.5900275120  MEMB      52              0.0000000000
      7776       104  POPC      C212           11.9488137107       12.2182587781       -5.1038137920  MEMB      52              0.0000000000
      7777       104  POPC      H12R           13.0331763208       12.1492911224       -5.3357531098  MEMB      52              0.0000000000
      7778       104  POPC      H12S           11.5336809431       11.1908760132       -5.2026804456  MEMB      52              0.0000000000
      7779       104  POPC      C213           11.7748560800       12.7006819226       -3.6546981030  MEMB      52              0.0000000000
      7780       104  POPC      H13R           10.7026390339       12.6443064446       -3.3752440433  MEMB      52              0.0000000000
      7781       104  POPC      H13S           12.0692646349       13.7728228327       -3.6137523549  MEMB      52              0.0000000000
      7782       104  POPC      C214           12.6370233761       11.9493596788       -2.6238418723  MEMB      52              0.0000000000
      7783       104  POPC      H14R           12.3801282222       10.8708131467       -2.5914094446  MEMB      52              0.0000000000
      7784       104  POPC      H14S           12.3992384921       12.3601366797       -1.6181157112  MEMB      52              0.0000000000
      7785       104  POPC      C215           14.1350463928       12.1299940842       -2.9256918307  MEMB      52              0.0000000000
      7786       104  POPC      H15R           14.3097571799       13.2066264793       -3.1431327451  MEMB      52              0.0000000000
      7787       104  POPC      H15S           14.3893131626       11.5463578797       -3.8392984465  MEMB      52              0.0000000000
      7788       104  POPC      C216           15.0975598366       11.7055305165       -1.8129763252  MEMB      52              0.0000000000
      7789       104  POPC      H16R           16.1367670325       11.7174610878       -2.2196761909  MEMB      52              0.0000000000
      7790       104  POPC      H16S           14.8725834882       10.6608624421       -1.5079818830  MEMB      52              0.0000000000
      7791       104  POPC      C217           15.0669990375       12.6290640109       -0.5943544512  MEMB      52              0.0000000000
      7792       104  POPC      H17R           14.0208178682       12.8883816975       -0.3207399408  MEMB      52              0.0000000000
      7793       104  POPC      H17S           15.5851720015       13.5827057198       -0.8470909077  MEMB      52              0.0000000000
      7794       104  POPC      C218           15.7418816375       11.9938684103        0.6136899605  MEMB      52              0.0000000000
      7795       104  POPC      H18R           16.8059950525       11.7688529657        0.3876208914  MEMB      52              0.0000000000
      7796       104  POPC      H18S           15.2444309928       11.0449098745        0.8953800856  MEMB      52              0.0000000000
      7797       104  POPC      H18T           15.6815215872       12.6830780313        1.4805781274  MEMB      52              0.0000000000
      7798       104  POPC      C33             8.7880475496       10.1475081257      -15.1116934362  MEMB      52              0.0000000000
      7799       104  POPC      H3X             8.3440071690        9.1999743234      -15.4696610967  MEMB      52              0.0000000000
      7800       104  POPC      H3Y             7.9727054151       10.8851682104      -14.9635911462  MEMB      52              0.0000000000
      7801       104  POPC      C34             9.3157203255        9.6520410195      -13.6978927946  MEMB      52              0.0000000000
      7802       104  POPC      H4X             8.3698240244        9.7057821272      -13.1037031273  MEMB      52              0.0000000000
      7803       104  POPC      H4Y             9.9524025929       10.4036222310      -13.2414759441  MEMB      52              0.0000000000
      7804       104  POPC      C35             9.8284319939        8.1995923636      -13.3107668194  MEMB      52              0.0000000000
      7805       104  POPC      H5X            10.0520162534        7.6074278200      -14.2022869009  MEMB      52              0.0000000000
      7806       104  POPC      H5Y             8.9797414148        7.6552360262      -12.8420781267  MEMB      52              0.0000000000
      7807       104  POPC      C36            11.0402961181        8.1301109926      -12.2920373229  MEMB      52              0.0000000000
      7808       104  POPC      H6X            10.7841843429        8.5926860790      -11.3257518959  MEMB      52              0.0000000000
      7809       104  POPC      H6Y            11.8345185063        8.7586130645      -12.6980441305  MEMB      52              0.0000000000
      7810       104  POPC      C37            11.8659794415        6.8186996543      -12.0958828509  MEMB      52              0.0000000000
      7811       104  POPC      H7X            12.7779043828        6.9171415030      -12.7304502533  MEMB      52              0.0000000000
      7812       104  POPC      H7Y            11.2800873296        5.9664462737      -12.5010199254  MEMB      52              0.0000000000
      7813       104  POPC      C38            12.4094297771        6.4183079820      -10.6821631793  MEMB      52              0.0000000000
      7814       104  POPC      H8X            12.9151484805        5.4307499264      -10.8245056412  MEMB      52              0.0000000000
      7815       104  POPC      H8Y            11.5656140943        6.2135914303       -9.9942711334  MEMB      52              0.0000000000
      7816       104  POPC      C39            13.4679564951        7.3033685400       -9.9548712936  MEMB      52              0.0000000000
      7817       104  POPC      H9X            13.4584713438        8.3310086972      -10.3590009713  MEMB      52              0.0000000000
      7818       104  POPC      H9Y            14.4787799883        6.8822607244      -10.1564843583  MEMB      52              0.0000000000
      7819       104  POPC      C310           13.2380218441        7.3291721719       -8.4193725814  MEMB      52              0.0000000000
      7820       104  POPC      H10X           12.9761740486        6.2900349093       -8.1119953396  MEMB      52              0.0000000000
      7821       104  POPC      H10Y           12.3633777154        7.9827035650       -8.2235176559  MEMB      52              0.0000000000
      7822       104  POPC      C311           14.3754744180        7.7674800672       -7.4675335029  MEMB      52              0.0000000000
      7823       104  POPC      H11X           14.6474916384        8.8312293914       -7.6303658854  MEMB      52              0.0000000000
      7824       104  POPC      H11Y           15.2818642450        7.1569901028       -7.6697827490  MEMB      52              0.0000000000
      7825       104  POPC      C312           13.9863546344        7.5635276115       -5.9797555321  MEMB      52              0.0000000000
      7826       104  POPC      H12X           14.8825754100        7.6999742978       -5.3328000933  MEMB      52              0.0000000000
      7827       104  POPC      H12Y           13.6424360060        6.5154729005       -5.8511554362  MEMB      52              0.0000000000
      7828       104  POPC      C313           12.8756006151        8.5106352114       -5.4888150569  MEMB      52              0.0000000000
      7829       104  POPC      H13X           11.9567678560        8.3602198107       -6.0948062548  MEMB      52              0.0000000000
      7830       104  POPC      H13Y           13.2202795552        9.5554920559       -5.6605430430  MEMB      52              0.0000000000
      7831       104  POPC      C314           12.4918381640        8.3619739513       -4.0022562486  MEMB      52              0.0000000000
      7832       104  POPC      H14X           11.8367973920        9.2247153346       -3.7419407054  MEMB      52              0.0000000000
      7833       104  POPC      H14Y           13.4013730196        8.4201667508       -3.3656857464  MEMB      52              0.0000000000
      7834       104  POPC      C315           11.6891544989        7.0936574277       -3.6643714566  MEMB      52              0.0000000000
      7835       104  POPC      H15X           12.2893482068        6.1977574937       -3.9363607805  MEMB      52              0.0000000000
      7836       104  POPC      H15Y           10.7689315809        7.0925834931       -4.2912620093  MEMB      52              0.0000000000
      7837       104  POPC      C316           11.2705889563        7.0046006723       -2.1903532339  MEMB      52              0.0000000000
      7838       104  POPC      H16X           10.7216696911        6.0611253877       -1.9910058636  MEMB      52              0.0000000000
      7839       104  POPC      H16Y           10.6040617071        7.8541538772       -1.9220144107  MEMB      52              0.0000000000
      7840       104  POPC      H16Z           12.1612628175        7.0401213466       -1.5278704011  MEMB      52              0.0000000000
      7841       105  POPC      N              14.5398179387       -7.7971068704      -21.3838544903  MEMB      53              0.0000000000
      7842       105  POPC      C12            15.2326228727       -8.2038781618      -20.0991294149  MEMB      53              0.0000000000
      7843       105  POPC      H12A           16.1770565830       -7.6842643638      -20.0032765550  MEMB      53              0.0000000000
      7844       105  POPC      H12B           15.4473118114       -9.2660499533      -20.1421464532  MEMB      53              0.0000000000
      7845       105  POPC      C13            15.3439745288       -8.1640590341      -22.5732871376  MEMB      53              0.0000000000
      7846       105  POPC      H13A           15.6177859632       -9.2212893960      -22.5509909308  MEMB      53              0.0000000000
      7847       105  POPC      H13B           14.7355263919       -8.0273798379      -23.4629598402  MEMB      53              0.0000000000
      7848       105  POPC      H13C           16.2518376482       -7.5840555185      -22.6563801177  MEMB      53              0.0000000000
      7849       105  POPC      C14            13.2566914607       -8.5596002983      -21.4977431448  MEMB      53              0.0000000000
      7850       105  POPC      H14A           13.4422931848       -9.6351125699      -21.5046192439  MEMB      53              0.0000000000
      7851       105  POPC      H14B           12.6075441496       -8.3092231357      -20.6714667995  MEMB      53              0.0000000000
      7852       105  POPC      H14C           12.7741462450       -8.3721120962      -22.4470117552  MEMB      53              0.0000000000
      7853       105  POPC      C15            14.2543469836       -6.3221616472      -21.3779092015  MEMB      53              0.0000000000
      7854       105  POPC      H15A           13.8623312088       -6.0807482464      -20.3819720047  MEMB      53              0.0000000000
      7855       105  POPC      H15B           13.4872773028       -6.0307588976      -22.0820646856  MEMB      53              0.0000000000
      7856       105  POPC      H15C           15.1463241475       -5.7270400523      -21.5149507422  MEMB      53              0.0000000000
      7857       105  POPC      C11            14.4589984366       -7.9259374483      -18.7939778930  MEMB      53              0.0000000000
      7858       105  POPC      H11A           15.0577677729       -8.3912954623      -17.9684278548  MEMB      53              0.0000000000
      7859       105  POPC      H11B           13.4666508223       -8.4311012725      -18.8017198749  MEMB      53              0.0000000000
      7860       105  POPC      P              14.0610779746       -5.9891353680      -17.1496924118  MEMB      53              0.0000000000
      7861       105  POPC      O13            12.9104995468       -6.6969542991      -16.5591578358  MEMB      53              0.0000000000
      7862       105  POPC      O14            14.0587042391       -4.5061840365      -17.1820835009  MEMB      53              0.0000000000
      7863       105  POPC      O12            14.2847348620       -6.5146579651      -18.6236836073  MEMB      53              0.0000000000
      7864       105  POPC      O11            15.4266889253       -6.4685540858      -16.4852560173  MEMB      53              0.0000000000
      7865       105  POPC      C1             16.6607032229       -5.9018195682      -16.9518552557  MEMB      53              0.0000000000
      7866       105  POPC      HA             16.4995650712       -4.9153413059      -17.4432640889  MEMB      53              0.0000000000
      7867       105  POPC      HB             17.1364713184       -6.5639305545      -17.7071714315  MEMB      53              0.0000000000
      7868       105  POPC      C2             17.6235867180       -5.6171086888      -15.7593329516  MEMB      53              0.0000000000
      7869       105  POPC      HS             18.4719655076       -4.9970628422      -16.1257076183  MEMB      53              0.0000000000
      7870       105  POPC      O21            18.1961563837       -6.7761678967      -15.1303716917  MEMB      53              0.0000000000
      7871       105  POPC      C21            17.7924516999       -7.9557952803      -15.5378219524  MEMB      53              0.0000000000
      7872       105  POPC      O22            18.1021729847       -8.4966057079      -16.5843199218  MEMB      53              0.0000000000
      7873       105  POPC      C22            16.9193967540       -8.5589895722      -14.4298673096  MEMB      53              0.0000000000
      7874       105  POPC      H2R            16.1254459053       -7.8221673377      -14.1766630087  MEMB      53              0.0000000000
      7875       105  POPC      H2S            17.5617183816       -8.6901608547      -13.5343684420  MEMB      53              0.0000000000
      7876       105  POPC      C3             16.8567654773       -4.7828408750      -14.6801811841  MEMB      53              0.0000000000
      7877       105  POPC      HX             15.7845867206       -5.0709292412      -14.7052413853  MEMB      53              0.0000000000
      7878       105  POPC      HY             16.8879134672       -3.7070799619      -14.9720374206  MEMB      53              0.0000000000
      7879       105  POPC      O31            17.3038059823       -4.9973658767      -13.3253477379  MEMB      53              0.0000000000
      7880       105  POPC      C31            18.4402635677       -4.3898790829      -13.0357179691  MEMB      53              0.0000000000
      7881       105  POPC      O32            19.1363758503       -3.7764989769      -13.8277405773  MEMB      53              0.0000000000
      7882       105  POPC      C32            18.5981648472       -4.3369422364      -11.5181915045  MEMB      53              0.0000000000
      7883       105  POPC      H2X            17.5818319381       -4.2115319053      -11.0868427547  MEMB      53              0.0000000000
      7884       105  POPC      H2Y            19.1897283203       -3.4217519600      -11.2993238754  MEMB      53              0.0000000000
      7885       105  POPC      C23            16.2797630997       -9.8994897748      -14.8466903106  MEMB      53              0.0000000000
      7886       105  POPC      H3R            16.9487588034      -10.4293797099      -15.5637135536  MEMB      53              0.0000000000
      7887       105  POPC      H3S            15.3241643686       -9.6988279099      -15.3803506119  MEMB      53              0.0000000000
      7888       105  POPC      C24            16.0556283278      -10.8658206435      -13.6748157771  MEMB      53              0.0000000000
      7889       105  POPC      H4R            17.0225323580      -11.0392916668      -13.1472758149  MEMB      53              0.0000000000
      7890       105  POPC      H4S            15.7018387641      -11.8265714601      -14.0949041605  MEMB      53              0.0000000000
      7891       105  POPC      C25            14.9969396624      -10.4205570856      -12.6650850742  MEMB      53              0.0000000000
      7892       105  POPC      H5R            15.3604984389       -9.4848147781      -12.1984576389  MEMB      53              0.0000000000
      7893       105  POPC      H5S            14.8829124713      -11.2029024707      -11.8787466638  MEMB      53              0.0000000000
      7894       105  POPC      C26            13.6231794397      -10.1181924225      -13.2779840266  MEMB      53              0.0000000000
      7895       105  POPC      H6R            13.3790487527      -10.8813735747      -14.0500682151  MEMB      53              0.0000000000
      7896       105  POPC      H6S            13.6737296643       -9.1286932595      -13.7896546215  MEMB      53              0.0000000000
      7897       105  POPC      C27            12.4884483668      -10.1053570948      -12.2363364679  MEMB      53              0.0000000000
      7898       105  POPC      H7R            12.2512128537      -11.1648468388      -11.9850754292  MEMB      53              0.0000000000
      7899       105  POPC      H7S            11.5801656050       -9.6701365856      -12.7100852999  MEMB      53              0.0000000000
      7900       105  POPC      C28            12.8234061951       -9.3657421328      -10.9206688869  MEMB      53              0.0000000000
      7901       105  POPC      H8R            13.6876815448       -9.8696644261      -10.4356225126  MEMB      53              0.0000000000
      7902       105  POPC      H8S            11.9664257366       -9.5116449396      -10.2272259322  MEMB      53              0.0000000000
      7903       105  POPC      C29            13.0627347520       -7.8863318319      -11.1011383222  MEMB      53              0.0000000000
      7904       105  POPC      H91            12.2353553863       -7.3587746101      -11.5998759278  MEMB      53              0.0000000000
      7905       105  POPC      C210           14.1868990518       -7.1926581407      -10.8244841314  MEMB      53              0.0000000000
      7906       105  POPC      H101           14.2072689140       -6.1243679098      -11.0901756587  MEMB      53              0.0000000000
      7907       105  POPC      C211           15.4915674184       -7.7130151105      -10.2637904905  MEMB      53              0.0000000000
      7908       105  POPC      H11R           16.3199758198       -7.2723659823      -10.8652547788  MEMB      53              0.0000000000
      7909       105  POPC      H11S           15.5870706900       -8.8156575208      -10.3654434787  MEMB      53              0.0000000000
      7910       105  POPC      C212           15.7843227169       -7.4321519484       -8.7811709400  MEMB      53              0.0000000000
      7911       105  POPC      H12R           15.5226886604       -6.3923136029       -8.4922123301  MEMB      53              0.0000000000
      7912       105  POPC      H12S           16.8891117413       -7.5358647883       -8.6558023693  MEMB      53              0.0000000000
      7913       105  POPC      C213           15.1324717880       -8.4483352336       -7.8248760443  MEMB      53              0.0000000000
      7914       105  POPC      H13R           15.0246490377       -9.4359813770       -8.3272642051  MEMB      53              0.0000000000
      7915       105  POPC      H13S           14.1141096331       -8.0935822190       -7.5541630643  MEMB      53              0.0000000000
      7916       105  POPC      C214           16.0025567060       -8.6350290779       -6.5748375616  MEMB      53              0.0000000000
      7917       105  POPC      H14R           16.2362903669       -7.6181196168       -6.1954420796  MEMB      53              0.0000000000
      7918       105  POPC      H14S           16.9655023479       -9.1100117692       -6.8679325996  MEMB      53              0.0000000000
      7919       105  POPC      C215           15.3584693186       -9.4471541414       -5.4432693570  MEMB      53              0.0000000000
      7920       105  POPC      H15R           15.0549187853      -10.4466988482       -5.8253680193  MEMB      53              0.0000000000
      7921       105  POPC      H15S           14.4358304570       -8.9183274288       -5.1101217298  MEMB      53              0.0000000000
      7922       105  POPC      C216           16.2898340146       -9.6256735799       -4.2280394800  MEMB      53              0.0000000000
      7923       105  POPC      H16R           17.1193595951      -10.3179488522       -4.4956263705  MEMB      53              0.0000000000
      7924       105  POPC      H16S           15.7111410384      -10.0955705199       -3.4012315473  MEMB      53              0.0000000000
      7925       105  POPC      C217           16.8911285065       -8.3068947953       -3.7176637633  MEMB      53              0.0000000000
      7926       105  POPC      H17R           16.0665482669       -7.5657552179       -3.6084134265  MEMB      53              0.0000000000
      7927       105  POPC      H17S           17.5984580850       -7.9045796685       -4.4787282614  MEMB      53              0.0000000000
      7928       105  POPC      C218           17.6271294188       -8.4311247624       -2.3817455678  MEMB      53              0.0000000000
      7929       105  POPC      H18R           18.4525203640       -9.1712013014       -2.4500183811  MEMB      53              0.0000000000
      7930       105  POPC      H18S           16.9269957389       -8.7476501432       -1.5792003542  MEMB      53              0.0000000000
      7931       105  POPC      H18T           18.0653593999       -7.4517711857       -2.0971926752  MEMB      53              0.0000000000
      7932       105  POPC      C33            19.2749838117       -5.5272536918      -10.8002574082  MEMB      53              0.0000000000
      7933       105  POPC      H3X            20.3490699739       -5.5744950309      -11.0755835120  MEMB      53              0.0000000000
      7934       105  POPC      H3Y            18.8061049590       -6.4971852919      -11.0768653511  MEMB      53              0.0000000000
      7935       105  POPC      C34            19.1277056034       -5.2744001310       -9.2897423829  MEMB      53              0.0000000000
      7936       105  POPC      H4X            18.0610435263       -5.4541559513       -9.0268280525  MEMB      53              0.0000000000
      7937       105  POPC      H4Y            19.3370466306       -4.1970036211       -9.0978299998  MEMB      53              0.0000000000
      7938       105  POPC      C35            20.0210668202       -6.0962608187       -8.3521321306  MEMB      53              0.0000000000
      7939       105  POPC      H5X            21.0633496897       -5.7094121984       -8.3648476088  MEMB      53              0.0000000000
      7940       105  POPC      H5Y            20.0431232794       -7.1388810183       -8.7207624548  MEMB      53              0.0000000000
      7941       105  POPC      C36            19.4727256909       -6.1072408339       -6.9115227136  MEMB      53              0.0000000000
      7942       105  POPC      H6X            20.0128175483       -6.8639541451       -6.3009160086  MEMB      53              0.0000000000
      7943       105  POPC      H6Y            18.4125086298       -6.4410258490       -6.9750388859  MEMB      53              0.0000000000
      7944       105  POPC      C37            19.5530232481       -4.7395312864       -6.2107216139  MEMB      53              0.0000000000
      7945       105  POPC      H7X            19.4069260915       -3.9285382120       -6.9597623974  MEMB      53              0.0000000000
      7946       105  POPC      H7Y            20.5710672805       -4.6079376955       -5.7824479660  MEMB      53              0.0000000000
      7947       105  POPC      C38            18.4931734644       -4.5297734940       -5.1156726555  MEMB      53              0.0000000000
      7948       105  POPC      H8X            18.6410859675       -3.5100482867       -4.6948932511  MEMB      53              0.0000000000
      7949       105  POPC      H8Y            18.6336341712       -5.2524297573       -4.2832603605  MEMB      53              0.0000000000
      7950       105  POPC      C39            17.0533046447       -4.6314033639       -5.6478475429  MEMB      53              0.0000000000
      7951       105  POPC      H9X            16.7382298866       -5.6946802059       -5.6238554429  MEMB      53              0.0000000000
      7952       105  POPC      H9Y            17.0247540043       -4.2956496688       -6.7101744590  MEMB      53              0.0000000000
      7953       105  POPC      C310           16.0505610726       -3.7870964525       -4.8534564702  MEMB      53              0.0000000000
      7954       105  POPC      H10X           16.2848262631       -2.7147073916       -5.0157678484  MEMB      53              0.0000000000
      7955       105  POPC      H10Y           16.1753888122       -3.9846719132       -3.7678903495  MEMB      53              0.0000000000
      7956       105  POPC      C311           14.5957718001       -4.0123087888       -5.2873492359  MEMB      53              0.0000000000
      7957       105  POPC      H11X           14.5384804185       -4.0353089101       -6.3986906769  MEMB      53              0.0000000000
      7958       105  POPC      H11Y           13.9934804616       -3.1416032002       -4.9395537929  MEMB      53              0.0000000000
      7959       105  POPC      C312           13.9645093980       -5.2845817006       -4.7036370620  MEMB      53              0.0000000000
      7960       105  POPC      H12X           14.4601273461       -6.1887320438       -5.1222155987  MEMB      53              0.0000000000
      7961       105  POPC      H12Y           12.8989972540       -5.3184463182       -5.0236306066  MEMB      53              0.0000000000
      7962       105  POPC      C313           14.0327879848       -5.3368195362       -3.1669321748  MEMB      53              0.0000000000
      7963       105  POPC      H13X           13.9984434045       -4.3008943474       -2.7610330208  MEMB      53              0.0000000000
      7964       105  POPC      H13Y           15.0103307266       -5.7733266651       -2.8658936667  MEMB      53              0.0000000000
      7965       105  POPC      C314           12.8841895694       -6.1376844826       -2.5423355461  MEMB      53              0.0000000000
      7966       105  POPC      H14X           13.2622004220       -6.7332277409       -1.6810227601  MEMB      53              0.0000000000
      7967       105  POPC      H14Y           12.4865394717       -6.8558989140       -3.2929834325  MEMB      53              0.0000000000
      7968       105  POPC      C315           11.7697797550       -5.2150022192       -2.0308067868  MEMB      53              0.0000000000
      7969       105  POPC      H15X           11.6173818554       -4.3941137967       -2.7680989891  MEMB      53              0.0000000000
      7970       105  POPC      H15Y           12.1067999795       -4.7480520578       -1.0768555002  MEMB      53              0.0000000000
      7971       105  POPC      C316           10.4388937382       -5.9296970042       -1.8109170079  MEMB      53              0.0000000000
      7972       105  POPC      H16X           10.5721876133       -6.8554317368       -1.2207788535  MEMB      53              0.0000000000
      7973       105  POPC      H16Y           10.0133262059       -6.2280557730       -2.7906642002  MEMB      53              0.0000000000
      7974       105  POPC      H16Z            9.7130074556       -5.2694381341       -1.2896132527  MEMB      53              0.0000000000
      7975       106  POPC      N             -17.4648325582       -5.4543381345      -20.3325709254  MEMB      54              0.0000000000
      7976       106  POPC      C12           -16.7911071726       -5.0862790242      -19.0186611447  MEMB      54              0.0000000000
      7977       106  POPC      H12A          -16.3204877487       -5.9462160575      -18.5807575757  MEMB      54              0.0000000000
      7978       106  POPC      H12B          -17.5777078840       -4.7681351092      -18.3254554821  MEMB      54              0.0000000000
      7979       106  POPC      C13           -16.4712869748       -5.7703558300      -21.4055576853  MEMB      54              0.0000000000
      7980       106  POPC      H13A          -16.9483041835       -5.9647479471      -22.3681139102  MEMB      54              0.0000000000
      7981       106  POPC      H13B          -15.8199987908       -4.9087532052      -21.5158127629  MEMB      54              0.0000000000
      7982       106  POPC      H13C          -15.8652944641       -6.6385563689      -21.1820759949  MEMB      54              0.0000000000
      7983       106  POPC      C14           -18.4085378400       -6.5845447299      -20.1185609504  MEMB      54              0.0000000000
      7984       106  POPC      H14A          -18.8868343911       -6.8943224676      -21.0501327068  MEMB      54              0.0000000000
      7985       106  POPC      H14B          -17.9217537112       -7.4568742062      -19.7095516051  MEMB      54              0.0000000000
      7986       106  POPC      H14C          -19.2077382452       -6.2825034127      -19.4499617675  MEMB      54              0.0000000000
      7987       106  POPC      C15           -18.2591691213       -4.2522498405      -20.7695308356  MEMB      54              0.0000000000
      7988       106  POPC      H15A          -18.8595935103       -3.8755555559      -19.9397185571  MEMB      54              0.0000000000
      7989       106  POPC      H15B          -18.8811543194       -4.4868826443      -21.6158299045  MEMB      54              0.0000000000
      7990       106  POPC      H15C          -17.5887948856       -3.4291879465      -21.0176336601  MEMB      54              0.0000000000
      7991       106  POPC      C11           -15.7752194613       -3.9225200770      -19.0223768684  MEMB      54              0.0000000000
      7992       106  POPC      H11A          -15.0560564306       -4.0206417633      -19.8611295151  MEMB      54              0.0000000000
      7993       106  POPC      H11B          -15.1728408541       -3.9895655892      -18.0915057039  MEMB      54              0.0000000000
      7994       106  POPC      P             -17.3154587957       -2.1539736656      -17.8912921739  MEMB      54              0.0000000000
      7995       106  POPC      O13           -18.4724983229       -3.0763522917      -17.7563437799  MEMB      54              0.0000000000
      7996       106  POPC      O14           -17.6204814409       -0.7370193015      -18.1590197832  MEMB      54              0.0000000000
      7997       106  POPC      O12           -16.4298028642       -2.6609826721      -19.0984094553  MEMB      54              0.0000000000
      7998       106  POPC      O11           -16.3623794739       -2.2660510474      -16.6326468346  MEMB      54              0.0000000000
      7999       106  POPC      C1            -15.0599425024       -1.6757139062      -16.6352999234  MEMB      54              0.0000000000
      8000       106  POPC      HA            -15.1310012665       -0.5878759932      -16.4121027363  MEMB      54              0.0000000000
      8001       106  POPC      HB            -14.5589248129       -1.7992951749      -17.6255148713  MEMB      54              0.0000000000
      8002       106  POPC      C2            -14.1441475461       -2.3578140598      -15.5804866447  MEMB      54              0.0000000000
      8003       106  POPC      HS            -13.0921482172       -2.0510385177      -15.7892772258  MEMB      54              0.0000000000
      8004       106  POPC      O21           -14.3124925581       -3.7643995594      -15.5984899904  MEMB      54              0.0000000000
      8005       106  POPC      C21           -13.4555880558       -4.5196728795      -16.1293139899  MEMB      54              0.0000000000
      8006       106  POPC      O22           -12.6363897811       -4.2350783637      -16.9851867069  MEMB      54              0.0000000000
      8007       106  POPC      C22           -13.6382085998       -5.8748853141      -15.4512896463  MEMB      54              0.0000000000
      8008       106  POPC      H2R           -12.8598958487       -6.5716810192      -15.8058444757  MEMB      54              0.0000000000
      8009       106  POPC      H2S           -14.6405537022       -6.2563161906      -15.7351738786  MEMB      54              0.0000000000
      8010       106  POPC      C3            -14.4761955033       -1.9682597584      -14.1301209391  MEMB      54              0.0000000000
      8011       106  POPC      HX            -14.5621579143       -0.8640464118      -14.0774958648  MEMB      54              0.0000000000
      8012       106  POPC      HY            -13.6545161510       -2.2985050528      -13.4566874742  MEMB      54              0.0000000000
      8013       106  POPC      O31           -15.6771146994       -2.6896825952      -13.7863050477  MEMB      54              0.0000000000
      8014       106  POPC      C31           -16.6911126367       -1.9621435425      -13.4087905690  MEMB      54              0.0000000000
      8015       106  POPC      O32           -16.5946751010       -0.9455072545      -12.7460076405  MEMB      54              0.0000000000
      8016       106  POPC      C32           -17.9875264406       -2.5428234829      -13.9677217772  MEMB      54              0.0000000000
      8017       106  POPC      H2X           -17.7247935171       -3.3541031957      -14.6819734401  MEMB      54              0.0000000000
      8018       106  POPC      H2Y           -18.5047422641       -1.7368367499      -14.5279983047  MEMB      54              0.0000000000
      8019       106  POPC      C23           -13.5446505141       -5.7236616204      -13.9127300462  MEMB      54              0.0000000000
      8020       106  POPC      H3R           -14.0179270442       -4.7841953067      -13.5483185299  MEMB      54              0.0000000000
      8021       106  POPC      H3S           -12.4677370853       -5.6676717492      -13.6269343401  MEMB      54              0.0000000000
      8022       106  POPC      C24           -14.2123453468       -6.8652452423      -13.1468469725  MEMB      54              0.0000000000
      8023       106  POPC      H4R           -13.4911965533       -7.1269035676      -12.3453164650  MEMB      54              0.0000000000
      8024       106  POPC      H4S           -14.3686531633       -7.7556299394      -13.7906165568  MEMB      54              0.0000000000
      8025       106  POPC      C25           -15.4837620945       -6.5246947852      -12.3599088112  MEMB      54              0.0000000000
      8026       106  POPC      H5R           -16.3650600900       -6.4723980999      -13.0330903095  MEMB      54              0.0000000000
      8027       106  POPC      H5S           -15.3524188462       -5.5217428784      -11.8951557816  MEMB      54              0.0000000000
      8028       106  POPC      C26           -15.6912748208       -7.5798606087      -11.2551332427  MEMB      54              0.0000000000
      8029       106  POPC      H6R           -14.7325541957       -7.7122152404      -10.7026470219  MEMB      54              0.0000000000
      8030       106  POPC      H6S           -15.9243743762       -8.5571382570      -11.7325181658  MEMB      54              0.0000000000
      8031       106  POPC      C27           -16.7659135403       -7.2312754237      -10.2171118700  MEMB      54              0.0000000000
      8032       106  POPC      H7R           -16.9375975965       -8.1448115170       -9.5985584974  MEMB      54              0.0000000000
      8033       106  POPC      H7S           -17.7178506628       -6.9794186235      -10.7323467605  MEMB      54              0.0000000000
      8034       106  POPC      C28           -16.3297683091       -6.0865197451       -9.2835222578  MEMB      54              0.0000000000
      8035       106  POPC      H8R           -16.1631312703       -5.1612617131       -9.8766129416  MEMB      54              0.0000000000
      8036       106  POPC      H8S           -15.3359857682       -6.3512953837       -8.8530349327  MEMB      54              0.0000000000
      8037       106  POPC      C29           -17.3457450971       -5.8311697590       -8.1982748236  MEMB      54              0.0000000000
      8038       106  POPC      H91           -18.1496182067       -5.1339667082       -8.4686979621  MEMB      54              0.0000000000
      8039       106  POPC      C210          -17.3753903264       -6.4138304737       -6.9872184658  MEMB      54              0.0000000000
      8040       106  POPC      H101          -18.1459447278       -6.1064272879       -6.2633187157  MEMB      54              0.0000000000
      8041       106  POPC      C211          -16.3926544741       -7.4395365163       -6.4889259039  MEMB      54              0.0000000000
      8042       106  POPC      H11R          -15.7863739033       -7.8475112070       -7.3262564641  MEMB      54              0.0000000000
      8043       106  POPC      H11S          -16.9437509941       -8.3111756490       -6.0706227385  MEMB      54              0.0000000000
      8044       106  POPC      C212          -15.4487404981       -6.8894850626       -5.3998489072  MEMB      54              0.0000000000
      8045       106  POPC      H12R          -14.8338055718       -7.7343255737       -5.0129366193  MEMB      54              0.0000000000
      8046       106  POPC      H12S          -16.0489940777       -6.5146940274       -4.5433673521  MEMB      54              0.0000000000
      8047       106  POPC      C213          -14.4845943399       -5.7909025139       -5.8907738642  MEMB      54              0.0000000000
      8048       106  POPC      H13R          -15.0673495362       -4.9238218682       -6.2762174392  MEMB      54              0.0000000000
      8049       106  POPC      H13S          -13.8812074221       -6.1705816909       -6.7438319357  MEMB      54              0.0000000000
      8050       106  POPC      C214          -13.5387687193       -5.2946897123       -4.7825351451  MEMB      54              0.0000000000
      8051       106  POPC      H14R          -12.7012994319       -4.7332669418       -5.2544726043  MEMB      54              0.0000000000
      8052       106  POPC      H14S          -13.1089202263       -6.1709733479       -4.2455677699  MEMB      54              0.0000000000
      8053       106  POPC      C215          -14.3000549126       -4.3862888841       -3.8081728598  MEMB      54              0.0000000000
      8054       106  POPC      H15R          -15.0494456478       -5.0112434081       -3.2693873581  MEMB      54              0.0000000000
      8055       106  POPC      H15S          -14.8693686035       -3.6336833982       -4.3991549126  MEMB      54              0.0000000000
      8056       106  POPC      C216          -13.4690655061       -3.6363119027       -2.7591430373  MEMB      54              0.0000000000
      8057       106  POPC      H16R          -12.7202760444       -4.3074428344       -2.2889403216  MEMB      54              0.0000000000
      8058       106  POPC      H16S          -14.1905696258       -3.3417277617       -1.9577811106  MEMB      54              0.0000000000
      8059       106  POPC      C217          -12.8525051153       -2.3365058109       -3.2904692619  MEMB      54              0.0000000000
      8060       106  POPC      H17R          -13.3984203127       -2.0287417161       -4.2158736061  MEMB      54              0.0000000000
      8061       106  POPC      H17S          -11.8130383547       -2.5404761975       -3.6083625829  MEMB      54              0.0000000000
      8062       106  POPC      C218          -12.9620921746       -1.1814982600       -2.2878858062  MEMB      54              0.0000000000
      8063       106  POPC      H18R          -12.6090268494       -1.4671336019       -1.2757234817  MEMB      54              0.0000000000
      8064       106  POPC      H18S          -14.0355481996       -0.8921423225       -2.1846524414  MEMB      54              0.0000000000
      8065       106  POPC      H18T          -12.4143715288       -0.2834376042       -2.6417681925  MEMB      54              0.0000000000
      8066       106  POPC      C33           -18.8714067968       -3.0988232630      -12.8439819930  MEMB      54              0.0000000000
      8067       106  POPC      H3X           -18.2720663616       -3.8333539331      -12.2574112894  MEMB      54              0.0000000000
      8068       106  POPC      H3Y           -19.7216515268       -3.6686788184      -13.2822447293  MEMB      54              0.0000000000
      8069       106  POPC      C34           -19.4263104148       -2.0098122824      -11.9161711634  MEMB      54              0.0000000000
      8070       106  POPC      H4X           -20.4038032278       -1.6730482374      -12.3307490207  MEMB      54              0.0000000000
      8071       106  POPC      H4Y           -18.7805140823       -1.1061288425      -11.8826663009  MEMB      54              0.0000000000
      8072       106  POPC      C35           -19.5875180742       -2.5243418697      -10.4826919547  MEMB      54              0.0000000000
      8073       106  POPC      H5X           -20.0468546305       -3.5391195247      -10.5477167545  MEMB      54              0.0000000000
      8074       106  POPC      H5Y           -20.3058695416       -1.8742963358       -9.9415697396  MEMB      54              0.0000000000
      8075       106  POPC      C36           -18.2722433066       -2.6496493866       -9.6778949061  MEMB      54              0.0000000000
      8076       106  POPC      H6X           -17.5567841618       -3.3063234819      -10.2184140122  MEMB      54              0.0000000000
      8077       106  POPC      H6Y           -18.5492718293       -3.1732034321       -8.7396657424  MEMB      54              0.0000000000
      8078       106  POPC      C37           -17.5213634596       -1.3593082818       -9.2774719005  MEMB      54              0.0000000000
      8079       106  POPC      H7X           -18.2027463617       -0.4875923495       -9.2399703196  MEMB      54              0.0000000000
      8080       106  POPC      H7Y           -16.7760820694       -1.1231132313      -10.0708029119  MEMB      54              0.0000000000
      8081       106  POPC      C38           -16.7899377413       -1.4968686090       -7.9187784671  MEMB      54              0.0000000000
      8082       106  POPC      H8X           -16.0644400837       -0.6618149541       -7.7964129518  MEMB      54              0.0000000000
      8083       106  POPC      H8Y           -16.2090451325       -2.4464415929       -7.9413095402  MEMB      54              0.0000000000
      8084       106  POPC      C39           -17.7273086983       -1.5115516536       -6.6921045670  MEMB      54              0.0000000000
      8085       106  POPC      H9X           -18.5976209973       -2.1626739368       -6.9279689690  MEMB      54              0.0000000000
      8086       106  POPC      H9Y           -18.1089753783       -0.4880309572       -6.4928240360  MEMB      54              0.0000000000
      8087       106  POPC      C310          -17.1071005612       -2.0702957303       -5.4037382769  MEMB      54              0.0000000000
      8088       106  POPC      H10X          -16.3719955063       -1.3568598628       -4.9723526051  MEMB      54              0.0000000000
      8089       106  POPC      H10Y          -16.5510859363       -2.9935237342       -5.6859993292  MEMB      54              0.0000000000
      8090       106  POPC      C311          -18.1539776852       -2.4623100458       -4.3382921437  MEMB      54              0.0000000000
      8091       106  POPC      H11X          -19.1155374387       -2.7213862562       -4.8335478336  MEMB      54              0.0000000000
      8092       106  POPC      H11Y          -18.3425047563       -1.6067039090       -3.6534850258  MEMB      54              0.0000000000
      8093       106  POPC      C312          -17.6867599916       -3.6976581261       -3.5542526161  MEMB      54              0.0000000000
      8094       106  POPC      H12X          -16.6987735292       -3.4600672533       -3.1181164082  MEMB      54              0.0000000000
      8095       106  POPC      H12Y          -17.5285277355       -4.5205212996       -4.2890361441  MEMB      54              0.0000000000
      8096       106  POPC      C313          -18.6512813610       -4.2132557212       -2.4743225392  MEMB      54              0.0000000000
      8097       106  POPC      H13X          -18.4658496448       -5.3032315351       -2.3307235409  MEMB      54              0.0000000000
      8098       106  POPC      H13Y          -19.6982689422       -4.0974873433       -2.8358424694  MEMB      54              0.0000000000
      8099       106  POPC      C314          -18.5071440309       -3.5419730090       -1.1001245658  MEMB      54              0.0000000000
      8100       106  POPC      H14X          -19.2681992176       -3.9838041162       -0.4174654713  MEMB      54              0.0000000000
      8101       106  POPC      H14Y          -18.7538620947       -2.4617487270       -1.2137112281  MEMB      54              0.0000000000
      8102       106  POPC      C315          -17.1186958207       -3.6648596281       -0.4367949507  MEMB      54              0.0000000000
      8103       106  POPC      H15X          -16.9620354797       -2.7542106972        0.1880272270  MEMB      54              0.0000000000
      8104       106  POPC      H15Y          -16.3073781478       -3.6502911593       -1.1889612123  MEMB      54              0.0000000000
      8105       106  POPC      C316          -16.9239404392       -4.8954123156        0.4563025121  MEMB      54              0.0000000000
      8106       106  POPC      H16X          -15.9418052877       -4.8298227046        0.9712756422  MEMB      54              0.0000000000
      8107       106  POPC      H16Y          -16.9585202629       -5.8334802331       -0.1353422770  MEMB      54              0.0000000000
      8108       106  POPC      H16Z          -17.7031713869       -4.9585543846        1.2406452463  MEMB      54              0.0000000000
      8109       107  POPC      N               6.6402786252       14.4336087930      -18.3156521019  MEMB      55              0.0000000000
      8110       107  POPC      C12             5.7574795792       13.1996196747      -18.4893309069  MEMB      55              0.0000000000
      8111       107  POPC      H12A            5.4665002349       13.0903095270      -19.5341411836  MEMB      55              0.0000000000
      8112       107  POPC      H12B            4.8351773569       13.2980681895      -17.9305221391  MEMB      55              0.0000000000
      8113       107  POPC      C13             7.0266278172       14.5917342027      -16.8815115092  MEMB      55              0.0000000000
      8114       107  POPC      H13A            6.1956397234       14.8190505518      -16.2313148789  MEMB      55              0.0000000000
      8115       107  POPC      H13B            7.5090398228       13.6712394472      -16.5420516611  MEMB      55              0.0000000000
      8116       107  POPC      H13C            7.7860973419       15.3551928290      -16.7752919342  MEMB      55              0.0000000000
      8117       107  POPC      C14             7.8840092913       14.2086688784      -19.1233788380  MEMB      55              0.0000000000
      8118       107  POPC      H14A            8.3938832006       13.3282110370      -18.7196533121  MEMB      55              0.0000000000
      8119       107  POPC      H14B            7.6317504190       13.9511706946      -20.1508799702  MEMB      55              0.0000000000
      8120       107  POPC      H14C            8.5597479768       15.0459604509      -19.1234023920  MEMB      55              0.0000000000
      8121       107  POPC      C15             6.0049364918       15.6860499039      -18.8207389376  MEMB      55              0.0000000000
      8122       107  POPC      H15A            6.7255974631       16.5015375554      -18.7768856211  MEMB      55              0.0000000000
      8123       107  POPC      H15B            5.1183256758       15.9655169945      -18.2830700655  MEMB      55              0.0000000000
      8124       107  POPC      H15C            5.8010513811       15.6163580858      -19.8878942026  MEMB      55              0.0000000000
      8125       107  POPC      C11             6.4361116604       11.8446862009      -18.1496699041  MEMB      55              0.0000000000
      8126       107  POPC      H11A            5.6522407530       11.0662031012      -17.9734883417  MEMB      55              0.0000000000
      8127       107  POPC      H11B            6.9966935732       11.9167515811      -17.1938707307  MEMB      55              0.0000000000
      8128       107  POPC      P               6.7368307160       10.7126890523      -20.4579431607  MEMB      55              0.0000000000
      8129       107  POPC      O13             7.5992293504       10.9161462730      -21.6477812652  MEMB      55              0.0000000000
      8130       107  POPC      O14             5.3133239272       11.1137520341      -20.6159997110  MEMB      55              0.0000000000
      8131       107  POPC      O12             7.3480158490       11.4746345335      -19.1964576257  MEMB      55              0.0000000000
      8132       107  POPC      O11             6.7791001152        9.1556708774      -20.0263039985  MEMB      55              0.0000000000
      8133       107  POPC      C1              7.8564019961        8.5975084186      -19.2278301363  MEMB      55              0.0000000000
      8134       107  POPC      HA              8.5966164596        9.3664582488      -18.9335503124  MEMB      55              0.0000000000
      8135       107  POPC      HB              8.4123605569        7.8774436442      -19.8725036261  MEMB      55              0.0000000000
      8136       107  POPC      C2              7.4866920672        7.7696328161      -17.9053747087  MEMB      55              0.0000000000
      8137       107  POPC      HS              6.8477984191        6.9199484491      -18.2353255367  MEMB      55              0.0000000000
      8138       107  POPC      O21             6.7905392124        8.5671487619      -16.8958936648  MEMB      55              0.0000000000
      8139       107  POPC      C21             5.9040174000        7.9190121996      -16.0862023895  MEMB      55              0.0000000000
      8140       107  POPC      O22             5.3520760241        6.8742321553      -16.3722222933  MEMB      55              0.0000000000
      8141       107  POPC      C22             5.6701971025        8.7443642273      -14.7751500892  MEMB      55              0.0000000000
      8142       107  POPC      H2R             4.9409338675        9.5271984176      -15.0725148511  MEMB      55              0.0000000000
      8143       107  POPC      H2S             6.5929325796        9.2463449996      -14.4754559400  MEMB      55              0.0000000000
      8144       107  POPC      C3              8.8198958406        7.1251951615      -17.2668740176  MEMB      55              0.0000000000
      8145       107  POPC      HX              9.1878974229        6.3614404696      -17.9881559513  MEMB      55              0.0000000000
      8146       107  POPC      HY              8.4992065879        6.5619757982      -16.3603093692  MEMB      55              0.0000000000
      8147       107  POPC      O31             9.9118803841        8.0480025758      -16.9192230624  MEMB      55              0.0000000000
      8148       107  POPC      C31            11.0384594028        7.4642072702      -16.4283564016  MEMB      55              0.0000000000
      8149       107  POPC      O32            11.2073141117        6.2641636638      -16.5632477671  MEMB      55              0.0000000000
      8150       107  POPC      C32            12.1964899768        8.2877669903      -15.6593871933  MEMB      55              0.0000000000
      8151       107  POPC      H2X            13.0806162151        7.9355268363      -16.2506172943  MEMB      55              0.0000000000
      8152       107  POPC      H2Y            12.3565143934        7.7847656939      -14.6941923967  MEMB      55              0.0000000000
      8153       107  POPC      C23             5.0892140674        8.0477408462      -13.4926067617  MEMB      55              0.0000000000
      8154       107  POPC      H3R             4.3998213714        7.2413799891      -13.8363267039  MEMB      55              0.0000000000
      8155       107  POPC      H3S             4.4768077619        8.7797253062      -12.9243778062  MEMB      55              0.0000000000
      8156       107  POPC      C24             6.0971428248        7.4117850014      -12.4958966919  MEMB      55              0.0000000000
      8157       107  POPC      H4R             6.9570196475        7.0018235902      -13.0653857043  MEMB      55              0.0000000000
      8158       107  POPC      H4S             5.5485252895        6.5412257485      -12.0669869912  MEMB      55              0.0000000000
      8159       107  POPC      C25             6.6000604957        8.1714101769      -11.2329846561  MEMB      55              0.0000000000
      8160       107  POPC      H5R             5.7242513009        8.4765631941      -10.6196923964  MEMB      55              0.0000000000
      8161       107  POPC      H5S             7.1231045893        9.1005561408      -11.5353882238  MEMB      55              0.0000000000
      8162       107  POPC      C26             7.5375092955        7.2393989814      -10.3977061659  MEMB      55              0.0000000000
      8163       107  POPC      H6R             7.8269479540        6.4214794510      -11.1036516383  MEMB      55              0.0000000000
      8164       107  POPC      H6S             7.0041636082        6.7332238897       -9.5898348695  MEMB      55              0.0000000000
      8165       107  POPC      C27             8.8766565647        7.7966763580       -9.8645818578  MEMB      55              0.0000000000
      8166       107  POPC      H7R             8.9980589596        8.7973160694      -10.3383652003  MEMB      55              0.0000000000
      8167       107  POPC      H7S             9.6843837349        7.1429732785      -10.2647485391  MEMB      55              0.0000000000
      8168       107  POPC      C28             9.1254378501        7.9532732499       -8.3291503803  MEMB      55              0.0000000000
      8169       107  POPC      H8R             8.2352429950        8.3694013179       -7.8412376285  MEMB      55              0.0000000000
      8170       107  POPC      H8S             9.8648976492        8.7910372623       -8.2886163847  MEMB      55              0.0000000000
      8171       107  POPC      C29             9.7557151775        6.8722192010       -7.4635170241  MEMB      55              0.0000000000
      8172       107  POPC      H91            10.8106782457        6.6757409653       -7.7036975395  MEMB      55              0.0000000000
      8173       107  POPC      C210            9.2221906251        6.1304794876       -6.4630872734  MEMB      55              0.0000000000
      8174       107  POPC      H101            9.8873515708        5.4318007107       -5.9282786786  MEMB      55              0.0000000000
      8175       107  POPC      C211            7.8071128303        6.1790868496       -5.9445158363  MEMB      55              0.0000000000
      8176       107  POPC      H11R            7.4485144554        5.1582410494       -5.6843218796  MEMB      55              0.0000000000
      8177       107  POPC      H11S            7.2430730150        6.4740688275       -6.8303891979  MEMB      55              0.0000000000
      8178       107  POPC      C212            7.3233178801        7.1773988952       -4.8573212613  MEMB      55              0.0000000000
      8179       107  POPC      H12R            6.4345067550        7.7098326912       -5.2684393993  MEMB      55              0.0000000000
      8180       107  POPC      H12S            8.0954826965        7.9484045408       -4.6594557752  MEMB      55              0.0000000000
      8181       107  POPC      C213            6.8458958134        6.5598482011       -3.5276963561  MEMB      55              0.0000000000
      8182       107  POPC      H13R            7.7391487201        6.2549336495       -2.9399663275  MEMB      55              0.0000000000
      8183       107  POPC      H13S            6.2326497127        5.6522138667       -3.7131421242  MEMB      55              0.0000000000
      8184       107  POPC      C214            6.0040568807        7.5519291425       -2.6924767657  MEMB      55              0.0000000000
      8185       107  POPC      H14R            5.0187831199        7.7287111073       -3.1753459108  MEMB      55              0.0000000000
      8186       107  POPC      H14S            6.5433140732        8.5225376864       -2.6744381750  MEMB      55              0.0000000000
      8187       107  POPC      C215            5.7897676696        7.1086725514       -1.2324370199  MEMB      55              0.0000000000
      8188       107  POPC      H15R            6.7820014918        6.8033774085       -0.8353013278  MEMB      55              0.0000000000
      8189       107  POPC      H15S            5.1185336355        6.2228901851       -1.1973796352  MEMB      55              0.0000000000
      8190       107  POPC      C216            5.2170656777        8.2121121427       -0.3193617519  MEMB      55              0.0000000000
      8191       107  POPC      H16R            4.2116780500        8.5128815948       -0.6892893082  MEMB      55              0.0000000000
      8192       107  POPC      H16S            5.8747822180        9.1082504572       -0.3826607650  MEMB      55              0.0000000000
      8193       107  POPC      C217            5.1009754696        7.7984224528        1.1617599170  MEMB      55              0.0000000000
      8194       107  POPC      H17R            4.3453609547        6.9848771202        1.2507498494  MEMB      55              0.0000000000
      8195       107  POPC      H17S            4.7133262630        8.6664832019        1.7446343339  MEMB      55              0.0000000000
      8196       107  POPC      C218            6.4151783465        7.3275046136        1.7975398634  MEMB      55              0.0000000000
      8197       107  POPC      H18R            6.2768542363        7.1189784378        2.8800732132  MEMB      55              0.0000000000
      8198       107  POPC      H18S            7.2005095010        8.1059321454        1.6862120438  MEMB      55              0.0000000000
      8199       107  POPC      H18T            6.7763523405        6.3949721561        1.3134946307  MEMB      55              0.0000000000
      8200       107  POPC      C33            12.5602723084        9.8455991456      -15.5063613799  MEMB      55              0.0000000000
      8201       107  POPC      H3X            12.3992825525       10.3837393017      -16.4416705490  MEMB      55              0.0000000000
      8202       107  POPC      H3Y            13.6697981953        9.7447282199      -15.5077743091  MEMB      55              0.0000000000
      8203       107  POPC      C34            12.3726452527       10.7761340370      -14.2324123011  MEMB      55              0.0000000000
      8204       107  POPC      H4X            13.4113588878       10.8432211749      -13.8527441376  MEMB      55              0.0000000000
      8205       107  POPC      H4Y            11.8275318665       10.4317303718      -13.3693203948  MEMB      55              0.0000000000
      8206       107  POPC      C35            12.0126555469       12.2874054353      -14.3648741934  MEMB      55              0.0000000000
      8207       107  POPC      H5X            12.1334337436       12.5422680641      -15.4232011956  MEMB      55              0.0000000000
      8208       107  POPC      H5Y            12.7647620045       12.8972078187      -13.8343843522  MEMB      55              0.0000000000
      8209       107  POPC      C36            10.6702496543       12.8823756894      -13.8535848916  MEMB      55              0.0000000000
      8210       107  POPC      H6X             9.8124026674       12.3601747762      -14.2993952163  MEMB      55              0.0000000000
      8211       107  POPC      H6Y            10.6732881437       13.9133035396      -14.2897495614  MEMB      55              0.0000000000
      8212       107  POPC      C37            10.4316166644       13.0946115987      -12.3341512919  MEMB      55              0.0000000000
      8213       107  POPC      H7X            10.2117814074       14.1786061376      -12.1951156965  MEMB      55              0.0000000000
      8214       107  POPC      H7Y            11.3459781332       12.9164104312      -11.7453933600  MEMB      55              0.0000000000
      8215       107  POPC      C38             9.2446746934       12.2919702402      -11.7363067234  MEMB      55              0.0000000000
      8216       107  POPC      H8X             9.6482512083       11.3702213868      -11.2631579716  MEMB      55              0.0000000000
      8217       107  POPC      H8Y             8.5805387346       11.9805890085      -12.5729984851  MEMB      55              0.0000000000
      8218       107  POPC      C39             8.3562161780       13.0633370082      -10.7327773423  MEMB      55              0.0000000000
      8219       107  POPC      H9X             7.6041208959       13.6332170208      -11.3237239901  MEMB      55              0.0000000000
      8220       107  POPC      H9Y             8.9866616946       13.8090449739      -10.1993807070  MEMB      55              0.0000000000
      8221       107  POPC      C310            7.6252093440       12.2144096564       -9.6557776364  MEMB      55              0.0000000000
      8222       107  POPC      H10X            7.0551006100       11.3857243339      -10.1279620447  MEMB      55              0.0000000000
      8223       107  POPC      H10Y            6.8944443708       12.8854825323       -9.1494652809  MEMB      55              0.0000000000
      8224       107  POPC      C311            8.5974721113       11.6881981238       -8.5829571945  MEMB      55              0.0000000000
      8225       107  POPC      H11X            9.3067784076       12.5178462361       -8.3664764528  MEMB      55              0.0000000000
      8226       107  POPC      H11Y            9.1930681354       10.8621575355       -9.0316223767  MEMB      55              0.0000000000
      8227       107  POPC      C312            8.0365761382       11.2133104702       -7.2184706455  MEMB      55              0.0000000000
      8228       107  POPC      H12X            8.9242718586       10.8077073564       -6.6767278597  MEMB      55              0.0000000000
      8229       107  POPC      H12Y            7.3200637416       10.3828660965       -7.3447270666  MEMB      55              0.0000000000
      8230       107  POPC      C313            7.4039921056       12.2871038652       -6.3082007094  MEMB      55              0.0000000000
      8231       107  POPC      H13X            6.2950996491       12.2266742251       -6.3747729914  MEMB      55              0.0000000000
      8232       107  POPC      H13Y            7.6991794050       13.2934434963       -6.6855434648  MEMB      55              0.0000000000
      8233       107  POPC      C314            7.8247461390       12.2177888018       -4.8170756483  MEMB      55              0.0000000000
      8234       107  POPC      H14X            7.1556857499       12.8838115216       -4.2271869970  MEMB      55              0.0000000000
      8235       107  POPC      H14Y            8.8515757253       12.6357613956       -4.7264375981  MEMB      55              0.0000000000
      8236       107  POPC      C315            7.8314293098       10.8223534926       -4.1666926777  MEMB      55              0.0000000000
      8237       107  POPC      H15X            8.5593560027       10.1761251621       -4.7056935239  MEMB      55              0.0000000000
      8238       107  POPC      H15Y            6.8246054410       10.3606658759       -4.2639185929  MEMB      55              0.0000000000
      8239       107  POPC      C316            8.2466457210       10.8254912144       -2.6872039346  MEMB      55              0.0000000000
      8240       107  POPC      H16X            7.5245415986       11.4008027668       -2.0700243900  MEMB      55              0.0000000000
      8241       107  POPC      H16Y            9.2551066879       11.2714889541       -2.5601766450  MEMB      55              0.0000000000
      8242       107  POPC      H16Z            8.2936798177        9.7873604850       -2.2920974400  MEMB      55              0.0000000000
      8243       108  POPC      N             -12.0573120223       12.5363636176      -19.2776626262  MEMB      56              0.0000000000
      8244       108  POPC      C12           -10.7092326336       12.5641909769      -18.5503466091  MEMB      56              0.0000000000
      8245       108  POPC      H12A          -10.6014733665       11.6808258981      -17.9080426851  MEMB      56              0.0000000000
      8246       108  POPC      H12B          -10.6552658420       13.4252545293      -17.8979869512  MEMB      56              0.0000000000
      8247       108  POPC      C13           -12.1586534813       11.2574671001      -20.0483241457  MEMB      56              0.0000000000
      8248       108  POPC      H13A          -11.3132111404       11.1968327186      -20.7405276219  MEMB      56              0.0000000000
      8249       108  POPC      H13B          -12.0348082628       10.3875628749      -19.4064125752  MEMB      56              0.0000000000
      8250       108  POPC      H13C          -13.0765467670       11.1473242874      -20.6102032615  MEMB      56              0.0000000000
      8251       108  POPC      C14           -13.1652724839       12.6738569110      -18.2901693942  MEMB      56              0.0000000000
      8252       108  POPC      H14A          -13.0040733332       13.5418060762      -17.6555304405  MEMB      56              0.0000000000
      8253       108  POPC      H14B          -14.1074431914       12.7746464292      -18.8089780107  MEMB      56              0.0000000000
      8254       108  POPC      H14C          -13.2167337472       11.7908691596      -17.6664869339  MEMB      56              0.0000000000
      8255       108  POPC      C15           -12.0927430601       13.6570100571      -20.2749739531  MEMB      56              0.0000000000
      8256       108  POPC      H15A          -12.1139314150       14.6192731454      -19.7800893238  MEMB      56              0.0000000000
      8257       108  POPC      H15B          -12.9238149446       13.5665053322      -20.9635293272  MEMB      56              0.0000000000
      8258       108  POPC      H15C          -11.1789801840       13.6299777802      -20.8768928934  MEMB      56              0.0000000000
      8259       108  POPC      C11            -9.4416200997       12.5677777914      -19.4387281171  MEMB      56              0.0000000000
      8260       108  POPC      H11A           -8.5683441676       12.9334132670      -18.8431941868  MEMB      56              0.0000000000
      8261       108  POPC      H11B           -9.5118971400       13.2992991970      -20.2655658012  MEMB      56              0.0000000000
      8262       108  POPC      P              -8.3722790901       10.2355657660      -19.1319768134  MEMB      56              0.0000000000
      8263       108  POPC      O13            -6.9746814917       10.7171737030      -19.0757343729  MEMB      56              0.0000000000
      8264       108  POPC      O14            -8.6083600936        8.8644961913      -19.6207951421  MEMB      56              0.0000000000
      8265       108  POPC      O12            -9.2307961240       11.2652405383      -19.9844398402  MEMB      56              0.0000000000
      8266       108  POPC      O11            -9.0151606967       10.3887013830      -17.6894944074  MEMB      56              0.0000000000
      8267       108  POPC      C1             -8.3667872764       11.0152931194      -16.5763595613  MEMB      56              0.0000000000
      8268       108  POPC      HA             -8.2308028199       12.1028056658      -16.7646511354  MEMB      56              0.0000000000
      8269       108  POPC      HB             -7.3627384470       10.5627870774      -16.3960751839  MEMB      56              0.0000000000
      8270       108  POPC      C2             -9.1986452021       10.8408240320      -15.2619202903  MEMB      56              0.0000000000
      8271       108  POPC      HS             -9.2420894584        9.7396338691      -15.0889930184  MEMB      56              0.0000000000
      8272       108  POPC      O21           -10.5100583991       11.4232654696      -15.4285147760  MEMB      56              0.0000000000
      8273       108  POPC      C21           -11.5007070811       10.7283413571      -14.8593920405  MEMB      56              0.0000000000
      8274       108  POPC      O22           -11.4153151811        9.6114332803      -14.3933704474  MEMB      56              0.0000000000
      8275       108  POPC      C22           -12.7678310790       11.5980201426      -14.8636698543  MEMB      56              0.0000000000
      8276       108  POPC      H2R           -13.5528232783       10.9980772348      -15.3652288206  MEMB      56              0.0000000000
      8277       108  POPC      H2S           -12.5754580501       12.5192562864      -15.4468117659  MEMB      56              0.0000000000
      8278       108  POPC      C3             -8.5075380003       11.4980902015      -14.0212055863  MEMB      56              0.0000000000
      8279       108  POPC      HX             -8.4573072423       12.5969551187      -14.1963713247  MEMB      56              0.0000000000
      8280       108  POPC      HY             -7.4717723351       11.0908736247      -13.9769326803  MEMB      56              0.0000000000
      8281       108  POPC      O31            -9.2225296268       11.2259416561      -12.7917141222  MEMB      56              0.0000000000
      8282       108  POPC      C31            -8.5187105621       11.4815905705      -11.6835064928  MEMB      56              0.0000000000
      8283       108  POPC      O32            -7.3967981345       11.9598002849      -11.6760209263  MEMB      56              0.0000000000
      8284       108  POPC      C32            -9.3107593829       11.0483395971      -10.4436139248  MEMB      56              0.0000000000
      8285       108  POPC      H2X            -9.1035733627        9.9784793962      -10.2518873291  MEMB      56              0.0000000000
      8286       108  POPC      H2Y           -10.3905537612       11.1485998916      -10.6719457595  MEMB      56              0.0000000000
      8287       108  POPC      C23           -13.2527358426       11.9721015448      -13.4431471281  MEMB      56              0.0000000000
      8288       108  POPC      H3R           -13.6257881449       11.0506119986      -12.9398255248  MEMB      56              0.0000000000
      8289       108  POPC      H3S           -14.1088732126       12.6806724277      -13.5147611437  MEMB      56              0.0000000000
      8290       108  POPC      C24           -12.1592511858       12.6235574968      -12.5848822966  MEMB      56              0.0000000000
      8291       108  POPC      H4R           -11.6606066976       13.4451871769      -13.1448206512  MEMB      56              0.0000000000
      8292       108  POPC      H4S           -11.4040303789       11.8410150903      -12.3719167672  MEMB      56              0.0000000000
      8293       108  POPC      C25           -12.6500328064       13.1630041452      -11.2354692222  MEMB      56              0.0000000000
      8294       108  POPC      H5R           -13.2650917404       14.0706761377      -11.4126916433  MEMB      56              0.0000000000
      8295       108  POPC      H5S           -11.7745418699       13.4651606189      -10.6168881446  MEMB      56              0.0000000000
      8296       108  POPC      C26           -13.4902246988       12.1398660476      -10.4669943899  MEMB      56              0.0000000000
      8297       108  POPC      H6R           -12.9319308152       11.1817793955      -10.3699854880  MEMB      56              0.0000000000
      8298       108  POPC      H6S           -14.4162825740       11.9353242827      -11.0525804721  MEMB      56              0.0000000000
      8299       108  POPC      C27           -13.9256595702       12.6312667997       -9.0842698839  MEMB      56              0.0000000000
      8300       108  POPC      H7R           -14.2284160142       13.6960485258       -9.1699273358  MEMB      56              0.0000000000
      8301       108  POPC      H7S           -13.0767189908       12.5825108296       -8.3693321656  MEMB      56              0.0000000000
      8302       108  POPC      C28           -15.1428543561       11.8632709095       -8.5557411438  MEMB      56              0.0000000000
      8303       108  POPC      H8R           -15.9612880901       11.9564832304       -9.2975724686  MEMB      56              0.0000000000
      8304       108  POPC      H8S           -15.4908230976       12.3619010881       -7.6237252902  MEMB      56              0.0000000000
      8305       108  POPC      C29           -14.8511069151       10.4061023153       -8.3566137855  MEMB      56              0.0000000000
      8306       108  POPC      H91           -14.7168608152        9.8269217065       -9.2843609472  MEMB      56              0.0000000000
      8307       108  POPC      C210          -14.7234237751        9.7808338084       -7.1793912527  MEMB      56              0.0000000000
      8308       108  POPC      H101          -14.5029251609        8.7089441536       -7.1792036705  MEMB      56              0.0000000000
      8309       108  POPC      C211          -14.8361110919       10.3661523032       -5.8005174216  MEMB      56              0.0000000000
      8310       108  POPC      H11R          -15.5430460518        9.7416712939       -5.2185005729  MEMB      56              0.0000000000
      8311       108  POPC      H11S          -15.2448044629       11.3978900418       -5.7927958201  MEMB      56              0.0000000000
      8312       108  POPC      C212          -13.4784621216       10.3423895876       -5.0808904264  MEMB      56              0.0000000000
      8313       108  POPC      H12R          -13.0687955254        9.3071321286       -5.1007964633  MEMB      56              0.0000000000
      8314       108  POPC      H12S          -13.6415204358       10.5994548554       -4.0115867908  MEMB      56              0.0000000000
      8315       108  POPC      C213          -12.4380023647       11.3040986388       -5.6787871454  MEMB      56              0.0000000000
      8316       108  POPC      H13R          -12.2695547188       11.0540495168       -6.7498594151  MEMB      56              0.0000000000
      8317       108  POPC      H13S          -11.4758042725       11.1353884093       -5.1480592315  MEMB      56              0.0000000000
      8318       108  POPC      C214          -12.8010655518       12.7952030793       -5.5575292928  MEMB      56              0.0000000000
      8319       108  POPC      H14R          -13.7602154971       13.0037237458       -6.0776975944  MEMB      56              0.0000000000
      8320       108  POPC      H14S          -12.0093601062       13.3888710603       -6.0701414213  MEMB      56              0.0000000000
      8321       108  POPC      C215          -12.8999826970       13.2576378942       -4.0977370305  MEMB      56              0.0000000000
      8322       108  POPC      H15R          -11.9401402922       13.0019058177       -3.6030879301  MEMB      56              0.0000000000
      8323       108  POPC      H15S          -13.7031573393       12.6961679099       -3.5723938109  MEMB      56              0.0000000000
      8324       108  POPC      C216          -13.1916127425       14.7565648910       -3.9433561012  MEMB      56              0.0000000000
      8325       108  POPC      H16R          -14.2844063770       14.9138299003       -4.0748326796  MEMB      56              0.0000000000
      8326       108  POPC      H16S          -12.6680275918       15.3233850984       -4.7451446990  MEMB      56              0.0000000000
      8327       108  POPC      C217          -12.7589364239       15.3451174999       -2.5914465091  MEMB      56              0.0000000000
      8328       108  POPC      H17R          -13.2714692240       16.3229135599       -2.4469190315  MEMB      56              0.0000000000
      8329       108  POPC      H17S          -11.6775932197       15.5723062899       -2.6647683788  MEMB      56              0.0000000000
      8330       108  POPC      C218          -13.0066075191       14.4415603190       -1.3775726169  MEMB      56              0.0000000000
      8331       108  POPC      H18R          -12.7609208603       14.9740064430       -0.4344913423  MEMB      56              0.0000000000
      8332       108  POPC      H18S          -12.3764518635       13.5263184051       -1.4292893629  MEMB      56              0.0000000000
      8333       108  POPC      H18T          -14.0732462599       14.1327088335       -1.3442767809  MEMB      56              0.0000000000
      8334       108  POPC      C33            -9.0060959008       11.8896714975       -9.1810375091  MEMB      56              0.0000000000
      8335       108  POPC      H3X            -9.8312347070       11.7250612292       -8.4494816653  MEMB      56              0.0000000000
      8336       108  POPC      H3Y            -9.0136074425       12.9735891042       -9.4285045951  MEMB      56              0.0000000000
      8337       108  POPC      C34            -7.6836623143       11.5245027482       -8.4888401039  MEMB      56              0.0000000000
      8338       108  POPC      H4X            -6.8874605425       11.3891477209       -9.2550974091  MEMB      56              0.0000000000
      8339       108  POPC      H4Y            -7.8047555797       10.5578015130       -7.9530025088  MEMB      56              0.0000000000
      8340       108  POPC      C35            -7.2059990740       12.6077285703       -7.5054444522  MEMB      56              0.0000000000
      8341       108  POPC      H5X            -6.9038157621       13.5078389435       -8.0882044438  MEMB      56              0.0000000000
      8342       108  POPC      H5Y            -6.2947289803       12.2555585594       -6.9749801888  MEMB      56              0.0000000000
      8343       108  POPC      C36            -8.2620940460       13.0293262640       -6.4729330716  MEMB      56              0.0000000000
      8344       108  POPC      H6X            -9.0916413510       13.5686282996       -6.9806879124  MEMB      56              0.0000000000
      8345       108  POPC      H6Y            -7.7911535114       13.7523320541       -5.7679192452  MEMB      56              0.0000000000
      8346       108  POPC      C37            -8.8459056364       11.8647123395       -5.6575077779  MEMB      56              0.0000000000
      8347       108  POPC      H7X            -9.3869896750       11.1434629174       -6.3045175050  MEMB      56              0.0000000000
      8348       108  POPC      H7Y            -9.6045582291       12.3057165142       -4.9741568872  MEMB      56              0.0000000000
      8349       108  POPC      C38            -7.7825547720       11.1327648399       -4.8271340216  MEMB      56              0.0000000000
      8350       108  POPC      H8X            -6.9780406980       11.8707927472       -4.5970505021  MEMB      56              0.0000000000
      8351       108  POPC      H8Y            -7.3152646461       10.3199062723       -5.4221168576  MEMB      56              0.0000000000
      8352       108  POPC      C39            -8.3159158276       10.5973453436       -3.4896725531  MEMB      56              0.0000000000
      8353       108  POPC      H9X            -8.4248064416        9.4917063607       -3.5357280366  MEMB      56              0.0000000000
      8354       108  POPC      H9Y            -9.3274986729       11.0195841994       -3.2962884948  MEMB      56              0.0000000000
      8355       108  POPC      C310           -7.3989959545       11.0024049451       -2.3284485582  MEMB      56              0.0000000000
      8356       108  POPC      H10X           -7.1485551649       12.0844993130       -2.4103507642  MEMB      56              0.0000000000
      8357       108  POPC      H10Y           -6.4394458807       10.4593598696       -2.4357177915  MEMB      56              0.0000000000
      8358       108  POPC      C311           -7.9808938617       10.7781458832       -0.9255269296  MEMB      56              0.0000000000
      8359       108  POPC      H11X           -8.6793375521       11.6095278416       -0.6792798630  MEMB      56              0.0000000000
      8360       108  POPC      H11Y           -7.1341209293       10.8393822381       -0.2056264648  MEMB      56              0.0000000000
      8361       108  POPC      C312           -8.7140880277        9.4478722314       -0.7169620693  MEMB      56              0.0000000000
      8362       108  POPC      H12X           -8.0665584702        8.6075766422       -1.0498489032  MEMB      56              0.0000000000
      8363       108  POPC      H12Y           -9.6477204964        9.4341363774       -1.3228977414  MEMB      56              0.0000000000
      8364       108  POPC      C313           -9.0689744660        9.2422518461        0.7615313853  MEMB      56              0.0000000000
      8365       108  POPC      H13X           -9.7242220004       10.0695969040        1.0972733035  MEMB      56              0.0000000000
      8366       108  POPC      H13Y           -8.1312802279        9.3124990641        1.3603312044  MEMB      56              0.0000000000
      8367       108  POPC      C314           -9.7317611451        7.8913730196        1.0710233160  MEMB      56              0.0000000000
      8368       108  POPC      H14X           -9.5685370810        7.6955147974        2.1564751734  MEMB      56              0.0000000000
      8369       108  POPC      H14Y           -9.2374727048        7.0852741516        0.4876918427  MEMB      56              0.0000000000
      8370       108  POPC      C315          -11.2408424531        7.8576966472        0.8310333171  MEMB      56              0.0000000000
      8371       108  POPC      H15X          -11.4526286971        7.8704624845       -0.2612603691  MEMB      56              0.0000000000
      8372       108  POPC      H15Y          -11.6371350917        8.7960381107        1.2656968814  MEMB      56              0.0000000000
      8373       108  POPC      C316          -11.9604263429        6.6856321373        1.5070378594  MEMB      56              0.0000000000
      8374       108  POPC      H16X          -11.6241343523        5.7149587908        1.0861496534  MEMB      56              0.0000000000
      8375       108  POPC      H16Y          -13.0599490173        6.7738000417        1.3661125940  MEMB      56              0.0000000000
      8376       108  POPC      H16Z          -11.7526702896        6.6875319884        2.5995390327  MEMB      56              0.0000000000
      8377       109  POPC      N              18.8809289257       -1.9758055305      -19.1526734260  MEMB      57              0.0000000000
      8378       109  POPC      C12            19.1316794108       -0.7469566064      -18.2831539468  MEMB      57              0.0000000000
      8379       109  POPC      H12A           19.6670252632       -1.0584807551      -17.3944621530  MEMB      57              0.0000000000
      8380       109  POPC      H12B           18.1874407066       -0.3443856604      -17.9335839681  MEMB      57              0.0000000000
      8381       109  POPC      C13            17.9261359193       -2.8871045952      -18.4487596552  MEMB      57              0.0000000000
      8382       109  POPC      H13A           18.3086827906       -3.1383684346      -17.4678825756  MEMB      57              0.0000000000
      8383       109  POPC      H13B           16.9505365580       -2.4255774548      -18.3093528754  MEMB      57              0.0000000000
      8384       109  POPC      H13C           17.7836022080       -3.8024431531      -19.0038817670  MEMB      57              0.0000000000
      8385       109  POPC      C14            18.2900364126       -1.6131116672      -20.4898539786  MEMB      57              0.0000000000
      8386       109  POPC      H14A           18.8166196719       -0.7360998742      -20.8767966846  MEMB      57              0.0000000000
      8387       109  POPC      H14B           18.4042144707       -2.4048700281      -21.2181117712  MEMB      57              0.0000000000
      8388       109  POPC      H14C           17.2573468945       -1.2963572828      -20.4131323519  MEMB      57              0.0000000000
      8389       109  POPC      C15            20.1984312368       -2.6608996389      -19.3288499508  MEMB      57              0.0000000000
      8390       109  POPC      H15A           20.0750311457       -3.5818285990      -19.8757530722  MEMB      57              0.0000000000
      8391       109  POPC      H15B           20.6852008649       -2.9095708155      -18.3864226313  MEMB      57              0.0000000000
      8392       109  POPC      H15C           20.9040280665       -2.0405261241      -19.8818605058  MEMB      57              0.0000000000
      8393       109  POPC      C11            19.9561910369        0.4118809028      -18.8886983117  MEMB      57              0.0000000000
      8394       109  POPC      H11A           20.9797393579        0.0723679153      -19.1592637533  MEMB      57              0.0000000000
      8395       109  POPC      H11B           20.0730202891        1.1876097681      -18.0896642885  MEMB      57              0.0000000000
      8396       109  POPC      P              18.9267847818        2.4189900653      -20.1920210477  MEMB      57              0.0000000000
      8397       109  POPC      O13            18.2761221333        2.5777201921      -21.5159949216  MEMB      57              0.0000000000
      8398       109  POPC      O14            20.1647250272        3.1965251826      -19.9552934704  MEMB      57              0.0000000000
      8399       109  POPC      O12            19.3204749357        0.9053229987      -20.0573221915  MEMB      57              0.0000000000
      8400       109  POPC      O11            17.8865881543        2.6794673368      -19.0049340454  MEMB      57              0.0000000000
      8401       109  POPC      C1             16.7674378375        1.8466165084      -18.6922097459  MEMB      57              0.0000000000
      8402       109  POPC      HA             17.0889736538        0.8170619190      -18.4515318248  MEMB      57              0.0000000000
      8403       109  POPC      HB             16.0900875972        1.7917094761      -19.5679518017  MEMB      57              0.0000000000
      8404       109  POPC      C2             15.9385040199        2.3719530609      -17.4630618633  MEMB      57              0.0000000000
      8405       109  POPC      HS             15.8308553531        3.4729716066      -17.5941599660  MEMB      57              0.0000000000
      8406       109  POPC      O21            16.6522756698        2.0877412594      -16.2376263507  MEMB      57              0.0000000000
      8407       109  POPC      C21            16.1846166389        2.5927901598      -15.0906702769  MEMB      57              0.0000000000
      8408       109  POPC      O22            15.1642331046        3.2385936850      -14.9600921635  MEMB      57              0.0000000000
      8409       109  POPC      C22            17.1774012892        2.2952518593      -13.9618526730  MEMB      57              0.0000000000
      8410       109  POPC      H2R            17.9242086770        1.5560662518      -14.3165870847  MEMB      57              0.0000000000
      8411       109  POPC      H2S            16.5930332749        1.8506967806      -13.1309497114  MEMB      57              0.0000000000
      8412       109  POPC      C3             14.5045626442        1.7401579077      -17.4359553474  MEMB      57              0.0000000000
      8413       109  POPC      HX             14.0260220070        1.8669350649      -18.4296744049  MEMB      57              0.0000000000
      8414       109  POPC      HY             13.8874665872        2.3344285889      -16.7229124279  MEMB      57              0.0000000000
      8415       109  POPC      O31            14.5662170331        0.3332223514      -17.1142073130  MEMB      57              0.0000000000
      8416       109  POPC      C31            13.6647786398       -0.0665945074      -16.2029581556  MEMB      57              0.0000000000
      8417       109  POPC      O32            12.6963927927        0.5736298620      -15.8467753679  MEMB      57              0.0000000000
      8418       109  POPC      C32            14.1155112046       -1.3717168317      -15.5308605793  MEMB      57              0.0000000000
      8419       109  POPC      H2X            15.1469924989       -1.6044674249      -15.8532898139  MEMB      57              0.0000000000
      8420       109  POPC      H2Y            13.4420322859       -2.1910103189      -15.8613152003  MEMB      57              0.0000000000
      8421       109  POPC      C23            17.8880518442        3.5851622898      -13.4722377238  MEMB      57              0.0000000000
      8422       109  POPC      H3R            17.1177174477        4.3189239124      -13.1404871964  MEMB      57              0.0000000000
      8423       109  POPC      H3S            18.4394069925        4.0451353449      -14.3268065712  MEMB      57              0.0000000000
      8424       109  POPC      C24            18.8885942334        3.3773247220      -12.3167032941  MEMB      57              0.0000000000
      8425       109  POPC      H4R            19.2153709139        4.3774915373      -11.9516776871  MEMB      57              0.0000000000
      8426       109  POPC      H4S            19.7892094179        2.8586304971      -12.7202965233  MEMB      57              0.0000000000
      8427       109  POPC      C25            18.3675541529        2.5530615673      -11.1250085948  MEMB      57              0.0000000000
      8428       109  POPC      H5R            19.1811538138        2.4313527216      -10.3745230251  MEMB      57              0.0000000000
      8429       109  POPC      H5S            18.1250141230        1.5337735730      -11.4999282235  MEMB      57              0.0000000000
      8430       109  POPC      C26            17.1278487753        3.1237665101      -10.4099035828  MEMB      57              0.0000000000
      8431       109  POPC      H6R            16.6289342815        2.2803931825       -9.8816075331  MEMB      57              0.0000000000
      8432       109  POPC      H6S            16.3921243455        3.5122707454      -11.1452167266  MEMB      57              0.0000000000
      8433       109  POPC      C27            17.4616096709        4.2095299043       -9.3688012427  MEMB      57              0.0000000000
      8434       109  POPC      H7R            17.6282080691        5.1710862413       -9.9023646520  MEMB      57              0.0000000000
      8435       109  POPC      H7S            18.4189831000        3.9407908210       -8.8663867699  MEMB      57              0.0000000000
      8436       109  POPC      C28            16.4063634801        4.4093915142       -8.2513451027  MEMB      57              0.0000000000
      8437       109  POPC      H8R            16.5122147372        5.4517387907       -7.8824322665  MEMB      57              0.0000000000
      8438       109  POPC      H8S            16.6953799230        3.7593871614       -7.3981014748  MEMB      57              0.0000000000
      8439       109  POPC      C29            14.9764942140        4.1449015972       -8.6606147499  MEMB      57              0.0000000000
      8440       109  POPC      H91            14.7014764222        4.5335007370       -9.6526177157  MEMB      57              0.0000000000
      8441       109  POPC      C210           14.0334352191        3.4932881227       -7.9503722849  MEMB      57              0.0000000000
      8442       109  POPC      H101           13.0359906463        3.3532744731       -8.4027296871  MEMB      57              0.0000000000
      8443       109  POPC      C211           14.1647526220        2.8717228096       -6.5809569229  MEMB      57              0.0000000000
      8444       109  POPC      H11R           15.2206446191        2.8110282203       -6.2365121535  MEMB      57              0.0000000000
      8445       109  POPC      H11S           13.7890367319        1.8261161867       -6.6218453861  MEMB      57              0.0000000000
      8446       109  POPC      C212           13.3619311300        3.6617449532       -5.5252286978  MEMB      57              0.0000000000
      8447       109  POPC      H12R           12.4289782409        4.0685208010       -5.9808611693  MEMB      57              0.0000000000
      8448       109  POPC      H12S           13.9725997444        4.5289419196       -5.1929582746  MEMB      57              0.0000000000
      8449       109  POPC      C213           12.9478245335        2.8278473627       -4.3034152554  MEMB      57              0.0000000000
      8450       109  POPC      H13R           12.2938600229        2.0136307726       -4.6814354815  MEMB      57              0.0000000000
      8451       109  POPC      H13S           12.3680358988        3.4840347640       -3.6169929430  MEMB      57              0.0000000000
      8452       109  POPC      C214           14.1109236133        2.1873647116       -3.5416827447  MEMB      57              0.0000000000
      8453       109  POPC      H14R           14.6742103891        1.5114615958       -4.2275959748  MEMB      57              0.0000000000
      8454       109  POPC      H14S           13.7201329211        1.5544407790       -2.7146677149  MEMB      57              0.0000000000
      8455       109  POPC      C215           15.1050554870        3.1924336075       -2.9418250848  MEMB      57              0.0000000000
      8456       109  POPC      H15R           14.5828795795        3.8695513592       -2.2303905801  MEMB      57              0.0000000000
      8457       109  POPC      H15S           15.5528884235        3.8158724124       -3.7471809373  MEMB      57              0.0000000000
      8458       109  POPC      C216           16.2188273106        2.4340528424       -2.2137466459  MEMB      57              0.0000000000
      8459       109  POPC      H16R           16.7592064174        1.7966123631       -2.9484370576  MEMB      57              0.0000000000
      8460       109  POPC      H16S           15.7245721329        1.7601267285       -1.4789723220  MEMB      57              0.0000000000
      8461       109  POPC      C217           17.2246613418        3.3006047384       -1.4494919058  MEMB      57              0.0000000000
      8462       109  POPC      H17R           17.6862231852        2.6514981575       -0.6694201750  MEMB      57              0.0000000000
      8463       109  POPC      H17S           16.6875732603        4.1202716067       -0.9234886049  MEMB      57              0.0000000000
      8464       109  POPC      C218           18.3530536799        3.8668967314       -2.3113361811  MEMB      57              0.0000000000
      8465       109  POPC      H18R           19.0426939200        4.4857343586       -1.6967142115  MEMB      57              0.0000000000
      8466       109  POPC      H18S           17.9365090154        4.5005290576       -3.1232535622  MEMB      57              0.0000000000
      8467       109  POPC      H18T           18.9426172268        3.0452274275       -2.7741440991  MEMB      57              0.0000000000
      8468       109  POPC      C33            14.0395238825       -1.2056456250      -13.9878799031  MEMB      57              0.0000000000
      8469       109  POPC      H3X            12.9715318114       -1.2286806874      -13.6715171336  MEMB      57              0.0000000000
      8470       109  POPC      H3Y            14.4353331589       -0.2014780308      -13.7096943576  MEMB      57              0.0000000000
      8471       109  POPC      C34            14.8190448646       -2.2467530458      -13.1684471828  MEMB      57              0.0000000000
      8472       109  POPC      H4X            15.8740848903       -2.2853836247      -13.5162531248  MEMB      57              0.0000000000
      8473       109  POPC      H4Y            14.3669083878       -3.2513228376      -13.3352091110  MEMB      57              0.0000000000
      8474       109  POPC      C35            14.8265741545       -1.9309599711      -11.6590972542  MEMB      57              0.0000000000
      8475       109  POPC      H5X            15.1608380268       -2.8342773732      -11.0991942278  MEMB      57              0.0000000000
      8476       109  POPC      H5Y            13.7878902097       -1.7072653694      -11.3270418071  MEMB      57              0.0000000000
      8477       109  POPC      C36            15.7496090053       -0.7524250615      -11.2906840082  MEMB      57              0.0000000000
      8478       109  POPC      H6X            15.1607831510        0.0419403909      -10.7816867134  MEMB      57              0.0000000000
      8479       109  POPC      H6Y            16.1390144599       -0.3039984484      -12.2323252035  MEMB      57              0.0000000000
      8480       109  POPC      C37            16.9657289890       -1.1533504519      -10.4297956902  MEMB      57              0.0000000000
      8481       109  POPC      H7X            17.7273835851       -0.3443959379      -10.4629163449  MEMB      57              0.0000000000
      8482       109  POPC      H7Y            17.4330446527       -2.0453878316      -10.8905265352  MEMB      57              0.0000000000
      8483       109  POPC      C38            16.6480920222       -1.4335344773       -8.9524862847  MEMB      57              0.0000000000
      8484       109  POPC      H8X            17.5290094481       -1.9132305585       -8.4699847204  MEMB      57              0.0000000000
      8485       109  POPC      H8Y            15.8063120959       -2.1587246110       -8.8937119763  MEMB      57              0.0000000000
      8486       109  POPC      C39            16.2799768513       -0.1686738192       -8.1597429237  MEMB      57              0.0000000000
      8487       109  POPC      H9X            15.7038488904       -0.4646415203       -7.2571468524  MEMB      57              0.0000000000
      8488       109  POPC      H9Y            15.5852387061        0.4579479564       -8.7620788712  MEMB      57              0.0000000000
      8489       109  POPC      C310           17.4724831153        0.7182006612       -7.7440234612  MEMB      57              0.0000000000
      8490       109  POPC      H10X           17.0449539469        1.6031324536       -7.2197118152  MEMB      57              0.0000000000
      8491       109  POPC      H10Y           17.9913750363        1.0920277323       -8.6526700549  MEMB      57              0.0000000000
      8492       109  POPC      C311           18.5273372834        0.0916387750       -6.8117813296  MEMB      57              0.0000000000
      8493       109  POPC      H11X           19.1311701906        0.9275933096       -6.3907315426  MEMB      57              0.0000000000
      8494       109  POPC      H11Y           19.2208110695       -0.5507660689       -7.3985049175  MEMB      57              0.0000000000
      8495       109  POPC      C312           17.9300670611       -0.7224854057       -5.6570109981  MEMB      57              0.0000000000
      8496       109  POPC      H12X           17.9863201178       -1.8011896835       -5.9170280241  MEMB      57              0.0000000000
      8497       109  POPC      H12Y           16.8554676229       -0.4545072779       -5.5477422431  MEMB      57              0.0000000000
      8498       109  POPC      C313           18.5739483419       -0.4634683349       -4.2862895228  MEMB      57              0.0000000000
      8499       109  POPC      H13X           18.6798257485        0.6372884577       -4.1554909532  MEMB      57              0.0000000000
      8500       109  POPC      H13Y           19.5878174764       -0.9158654326       -4.2432335977  MEMB      57              0.0000000000
      8501       109  POPC      C314           17.7057104690       -0.9946432824       -3.1329007686  MEMB      57              0.0000000000
      8502       109  POPC      H14X           17.7283560144       -2.1067712871       -3.1284629500  MEMB      57              0.0000000000
      8503       109  POPC      H14Y           16.6497734693       -0.6875023128       -3.3089659980  MEMB      57              0.0000000000
      8504       109  POPC      C315           18.1382136002       -0.4771453702       -1.7551926736  MEMB      57              0.0000000000
      8505       109  POPC      H15X           18.2960241714        0.6222117636       -1.8095495234  MEMB      57              0.0000000000
      8506       109  POPC      H15Y           19.1243939525       -0.9253355925       -1.5025042788  MEMB      57              0.0000000000
      8507       109  POPC      C316           17.1143764106       -0.7766156689       -0.6527581227  MEMB      57              0.0000000000
      8508       109  POPC      H16X           16.4386488663       -1.6045186252       -0.9554620543  MEMB      57              0.0000000000
      8509       109  POPC      H16Y           16.4988280303        0.1181327069       -0.4321919353  MEMB      57              0.0000000000
      8510       109  POPC      H16Z           17.6096632138       -1.0641686081        0.2933272379  MEMB      57              0.0000000000
      8511       110  POPC      N              -4.4029700222      -16.3243882499      -17.4371566965  MEMB      58              0.0000000000
      8512       110  POPC      C12            -4.1559507527      -16.5207038720      -18.9254131568  MEMB      58              0.0000000000
      8513       110  POPC      H12A           -4.1417358919      -17.5898686207      -19.1710535698  MEMB      58              0.0000000000
      8514       110  POPC      H12B           -3.1958134809      -16.1077937150      -19.1924244930  MEMB      58              0.0000000000
      8515       110  POPC      C13            -5.6711475209      -17.0309656205      -17.0842716241  MEMB      58              0.0000000000
      8516       110  POPC      H13A           -5.5942162448      -18.1113114548      -17.1486313281  MEMB      58              0.0000000000
      8517       110  POPC      H13B           -6.0518066856      -16.7582678118      -16.1169937735  MEMB      58              0.0000000000
      8518       110  POPC      H13C           -6.4319728065      -16.7869628261      -17.8409161973  MEMB      58              0.0000000000
      8519       110  POPC      C14            -3.3214036884      -16.9135171618      -16.5932491780  MEMB      58              0.0000000000
      8520       110  POPC      H14A           -2.3761043561      -16.3838211339      -16.6550750277  MEMB      58              0.0000000000
      8521       110  POPC      H14B           -3.6290128713      -16.9111867721      -15.5533454691  MEMB      58              0.0000000000
      8522       110  POPC      H14C           -3.1231410787      -17.9450134365      -16.8652358272  MEMB      58              0.0000000000
      8523       110  POPC      C15            -4.5635162977      -14.8626126485      -17.1391933095  MEMB      58              0.0000000000
      8524       110  POPC      H15A           -5.4167426168      -14.4800855572      -17.6983439915  MEMB      58              0.0000000000
      8525       110  POPC      H15B           -3.7003162274      -14.2846303227      -17.4414961704  MEMB      58              0.0000000000
      8526       110  POPC      H15C           -4.7234626315      -14.6843061207      -16.0863203252  MEMB      58              0.0000000000
      8527       110  POPC      C11            -5.2334473385      -15.9274235838      -19.8692075594  MEMB      58              0.0000000000
      8528       110  POPC      H11A           -4.8117886146      -15.8999939211      -20.9079310912  MEMB      58              0.0000000000
      8529       110  POPC      H11B           -5.4524960159      -14.8669712860      -19.6284818099  MEMB      58              0.0000000000
      8530       110  POPC      P              -6.4919752778      -17.9697371800      -20.7222874242  MEMB      58              0.0000000000
      8531       110  POPC      O13            -5.2827323944      -18.7630650185      -20.3942992300  MEMB      58              0.0000000000
      8532       110  POPC      O14            -6.7124200429      -17.4688496709      -22.0967945363  MEMB      58              0.0000000000
      8533       110  POPC      O12            -6.4487404623      -16.6957506165      -19.7741051116  MEMB      58              0.0000000000
      8534       110  POPC      O11            -7.7693140882      -18.7634246888      -20.2834614219  MEMB      58              0.0000000000
      8535       110  POPC      C1             -7.7893166422      -19.3535625821      -18.9957448946  MEMB      58              0.0000000000
      8536       110  POPC      HA             -6.7995942925      -19.3834947658      -18.4824848129  MEMB      58              0.0000000000
      8537       110  POPC      HB             -8.1242003366      -20.4057875417      -19.1049079543  MEMB      58              0.0000000000
      8538       110  POPC      C2             -8.8056058375      -18.6275590169      -18.1168138051  MEMB      58              0.0000000000
      8539       110  POPC      HS             -9.7605161469      -18.6519022242      -18.6981467892  MEMB      58              0.0000000000
      8540       110  POPC      O21            -8.3826775737      -17.2883073515      -17.8149603723  MEMB      58              0.0000000000
      8541       110  POPC      C21            -9.4024440980      -16.5874463163      -17.3880640675  MEMB      58              0.0000000000
      8542       110  POPC      O22           -10.5788334149      -16.8780240945      -17.5456855992  MEMB      58              0.0000000000
      8543       110  POPC      C22            -8.8991348402      -15.4008123079      -16.5851011809  MEMB      58              0.0000000000
      8544       110  POPC      H2R            -9.7639966426      -14.7123350180      -16.5288993648  MEMB      58              0.0000000000
      8545       110  POPC      H2S            -8.0665553590      -14.9212613085      -17.1399086334  MEMB      58              0.0000000000
      8546       110  POPC      C3             -8.9914225649      -19.3911454924      -16.7981178943  MEMB      58              0.0000000000
      8547       110  POPC      HX             -9.2800824554      -20.4103122842      -17.1043299612  MEMB      58              0.0000000000
      8548       110  POPC      HY             -9.8517856411      -18.9509495102      -16.2453129391  MEMB      58              0.0000000000
      8549       110  POPC      O31            -7.7554356000      -19.4438895285      -16.0507724774  MEMB      58              0.0000000000
      8550       110  POPC      C31            -7.8495144163      -19.0693797745      -14.7846782210  MEMB      58              0.0000000000
      8551       110  POPC      O32            -8.8657472955      -18.6535067466      -14.2566913391  MEMB      58              0.0000000000
      8552       110  POPC      C32            -6.5410613431      -19.2426853016      -14.0368316720  MEMB      58              0.0000000000
      8553       110  POPC      H2X            -6.2277540943      -18.2577104659      -13.6345492439  MEMB      58              0.0000000000
      8554       110  POPC      H2Y            -5.7500862004      -19.6441341178      -14.7000887276  MEMB      58              0.0000000000
      8555       110  POPC      C23            -8.4577453621      -15.7666955595      -15.1479750691  MEMB      58              0.0000000000
      8556       110  POPC      H3R            -7.6999891876      -16.5730162445      -15.1950037330  MEMB      58              0.0000000000
      8557       110  POPC      H3S            -9.3322199965      -16.1486324422      -14.5731960556  MEMB      58              0.0000000000
      8558       110  POPC      C24            -7.8088631618      -14.6069093472      -14.3805621935  MEMB      58              0.0000000000
      8559       110  POPC      H4R            -8.5947201991      -13.8620195224      -14.1228639477  MEMB      58              0.0000000000
      8560       110  POPC      H4S            -7.0569844796      -14.1149839193      -15.0358162911  MEMB      58              0.0000000000
      8561       110  POPC      C25            -7.1156293945      -15.0530355873      -13.0863526329  MEMB      58              0.0000000000
      8562       110  POPC      H5R            -6.5829592720      -14.1824480113      -12.6395874982  MEMB      58              0.0000000000
      8563       110  POPC      H5S            -6.3541990466      -15.8316214993      -13.3058080713  MEMB      58              0.0000000000
      8564       110  POPC      C26            -8.1131676352      -15.5860965467      -12.0544165386  MEMB      58              0.0000000000
      8565       110  POPC      H6R            -8.6429517702      -16.4862368851      -12.4409476749  MEMB      58              0.0000000000
      8566       110  POPC      H6S            -8.8796261523      -14.7968932870      -11.8722560138  MEMB      58              0.0000000000
      8567       110  POPC      C27            -7.4686364860      -15.9371444082      -10.7084500259  MEMB      58              0.0000000000
      8568       110  POPC      H7R            -6.7455307339      -15.1376925575      -10.4263371329  MEMB      58              0.0000000000
      8569       110  POPC      H7S            -6.9017733070      -16.8913150757      -10.8028587037  MEMB      58              0.0000000000
      8570       110  POPC      C28            -8.5457606200      -16.0500581218       -9.6183218483  MEMB      58              0.0000000000
      8571       110  POPC      H8R            -9.2763330235      -16.8288307724       -9.9342391827  MEMB      58              0.0000000000
      8572       110  POPC      H8S            -9.1031259134      -15.0880609349       -9.5757661754  MEMB      58              0.0000000000
      8573       110  POPC      C29            -7.9794730120      -16.4038738477       -8.2748902803  MEMB      58              0.0000000000
      8574       110  POPC      H91            -8.0217066877      -17.4771815747       -8.0337482903  MEMB      58              0.0000000000
      8575       110  POPC      C210           -7.4253350621      -15.5646586250       -7.3818517023  MEMB      58              0.0000000000
      8576       110  POPC      H101           -7.0798223005      -15.9791838270       -6.4295444610  MEMB      58              0.0000000000
      8577       110  POPC      C211           -7.2203342504      -14.0761783799       -7.4734895717  MEMB      58              0.0000000000
      8578       110  POPC      H11R           -7.6968996813      -13.5951912453       -6.5922527289  MEMB      58              0.0000000000
      8579       110  POPC      H11S           -7.7184231011      -13.6585273086       -8.3761753556  MEMB      58              0.0000000000
      8580       110  POPC      C212           -5.7287256412      -13.6662131529       -7.5096994540  MEMB      58              0.0000000000
      8581       110  POPC      H12R           -5.6713324687      -12.5622437476       -7.3828447518  MEMB      58              0.0000000000
      8582       110  POPC      H12S           -5.3298536418      -13.9040940482       -8.5228879283  MEMB      58              0.0000000000
      8583       110  POPC      C213           -4.7971248709      -14.3324595267       -6.4697424805  MEMB      58              0.0000000000
      8584       110  POPC      H13R           -3.7716825794      -13.9212498483       -6.6098789704  MEMB      58              0.0000000000
      8585       110  POPC      H13S           -4.7338518146      -15.4225253572       -6.6807438589  MEMB      58              0.0000000000
      8586       110  POPC      C214           -5.2072433546      -14.1234825415       -5.0016300192  MEMB      58              0.0000000000
      8587       110  POPC      H14R           -6.1438687178      -14.6817456503       -4.7950144316  MEMB      58              0.0000000000
      8588       110  POPC      H14S           -5.4167775809      -13.0419880561       -4.8457386978  MEMB      58              0.0000000000
      8589       110  POPC      C215           -4.1350931905      -14.5616134358       -3.9829083909  MEMB      58              0.0000000000
      8590       110  POPC      H15R           -4.4260560432      -14.1681498880       -2.9825675182  MEMB      58              0.0000000000
      8591       110  POPC      H15S           -3.1626906013      -14.0970007894       -4.2577812124  MEMB      58              0.0000000000
      8592       110  POPC      C216           -3.9663419308      -16.0868726380       -3.8673219465  MEMB      58              0.0000000000
      8593       110  POPC      H16R           -3.7687964663      -16.5086506363       -4.8779106642  MEMB      58              0.0000000000
      8594       110  POPC      H16S           -4.9191676099      -16.5216474659       -3.4942043518  MEMB      58              0.0000000000
      8595       110  POPC      C217           -2.8395285230      -16.5285049944       -2.9190437618  MEMB      58              0.0000000000
      8596       110  POPC      H17R           -1.8897369749      -16.0398866296       -3.2340413173  MEMB      58              0.0000000000
      8597       110  POPC      H17S           -2.7006641276      -17.6298070528       -3.0328199044  MEMB      58              0.0000000000
      8598       110  POPC      C218           -3.1025161547      -16.2278463286       -1.4396578364  MEMB      58              0.0000000000
      8599       110  POPC      H18R           -4.0127018196      -16.7617911142       -1.0918042763  MEMB      58              0.0000000000
      8600       110  POPC      H18S           -3.2482770619      -15.1387824075       -1.2776562604  MEMB      58              0.0000000000
      8601       110  POPC      H18T           -2.2430534137      -16.5561936238       -0.8161721993  MEMB      58              0.0000000000
      8602       110  POPC      C33            -6.8246939697      -20.2017822408      -12.8688983617  MEMB      58              0.0000000000
      8603       110  POPC      H3X            -7.0824320461      -21.2116217501      -13.2670530087  MEMB      58              0.0000000000
      8604       110  POPC      H3Y            -7.7026595244      -19.8538070972      -12.2714883404  MEMB      58              0.0000000000
      8605       110  POPC      C34            -5.6446856254      -20.3621925181      -11.9238105302  MEMB      58              0.0000000000
      8606       110  POPC      H4X            -5.5758832951      -19.4482602351      -11.2930010887  MEMB      58              0.0000000000
      8607       110  POPC      H4Y            -4.6888566359      -20.4614210233      -12.4830189605  MEMB      58              0.0000000000
      8608       110  POPC      C35            -5.8572132781      -21.6135608626      -11.0709368385  MEMB      58              0.0000000000
      8609       110  POPC      H5X            -5.6037682771      -22.5224498471      -11.6598286781  MEMB      58              0.0000000000
      8610       110  POPC      H5Y            -6.9369410760      -21.6821770520      -10.8096120312  MEMB      58              0.0000000000
      8611       110  POPC      C36            -5.0648074007      -21.5603677003       -9.7751634799  MEMB      58              0.0000000000
      8612       110  POPC      H6X            -3.9974202744      -21.3895098870      -10.0016252685  MEMB      58              0.0000000000
      8613       110  POPC      H6Y            -5.1541533708      -22.5374382968       -9.2537558232  MEMB      58              0.0000000000
      8614       110  POPC      C37            -5.5973247638      -20.4582660156       -8.8697895344  MEMB      58              0.0000000000
      8615       110  POPC      H7X            -6.6756701822      -20.3130721824       -9.1227026050  MEMB      58              0.0000000000
      8616       110  POPC      H7Y            -5.0812805794      -19.4922313078       -9.0559817172  MEMB      58              0.0000000000
      8617       110  POPC      C38            -5.5229353553      -20.8427539197       -7.4043408991  MEMB      58              0.0000000000
      8618       110  POPC      H8X            -4.4865430639      -20.7548756415       -7.0139387092  MEMB      58              0.0000000000
      8619       110  POPC      H8Y            -5.8136858954      -21.9134125181       -7.3003458204  MEMB      58              0.0000000000
      8620       110  POPC      C39            -6.5079572492      -20.0119303635       -6.5980098180  MEMB      58              0.0000000000
      8621       110  POPC      H9X            -6.7858611247      -20.6075060344       -5.6988640363  MEMB      58              0.0000000000
      8622       110  POPC      H9Y            -7.4454402114      -19.8513491090       -7.1781598389  MEMB      58              0.0000000000
      8623       110  POPC      C310           -5.9361966760      -18.6643580136       -6.1498260225  MEMB      58              0.0000000000
      8624       110  POPC      H10X           -5.9500720210      -17.9571002387       -7.0047011303  MEMB      58              0.0000000000
      8625       110  POPC      H10Y           -4.8709202787      -18.7768154945       -5.8433508999  MEMB      58              0.0000000000
      8626       110  POPC      C311           -6.7225498113      -18.1173168828       -4.9571365466  MEMB      58              0.0000000000
      8627       110  POPC      H11X           -6.5042942217      -17.0407158498       -4.8052752047  MEMB      58              0.0000000000
      8628       110  POPC      H11Y           -6.3772934271      -18.6545938506       -4.0531342643  MEMB      58              0.0000000000
      8629       110  POPC      C312           -8.2329635883      -18.3444481870       -5.0674825613  MEMB      58              0.0000000000
      8630       110  POPC      H12X           -8.4493394785      -19.4341661961       -5.0875557657  MEMB      58              0.0000000000
      8631       110  POPC      H12Y           -8.6125404554      -17.9013312061       -6.0105316908  MEMB      58              0.0000000000
      8632       110  POPC      C313           -9.0077529486      -17.7633862331       -3.8902495613  MEMB      58              0.0000000000
      8633       110  POPC      H13X          -10.0822123828      -17.7793214262       -4.1388131117  MEMB      58              0.0000000000
      8634       110  POPC      H13Y           -8.7067441373      -16.7103590274       -3.7529729696  MEMB      58              0.0000000000
      8635       110  POPC      C314           -8.7697590616      -18.5484009326       -2.6028185305  MEMB      58              0.0000000000
      8636       110  POPC      H14X           -7.6927745110      -18.4392981094       -2.3665399216  MEMB      58              0.0000000000
      8637       110  POPC      H14Y           -8.9823576352      -19.6276405987       -2.7816442943  MEMB      58              0.0000000000
      8638       110  POPC      C315           -9.5878376168      -18.0602881209       -1.4030870800  MEMB      58              0.0000000000
      8639       110  POPC      H15X           -9.5699130974      -18.8552195758       -0.6221127279  MEMB      58              0.0000000000
      8640       110  POPC      H15Y          -10.6464514382      -17.9162102892       -1.7134692979  MEMB      58              0.0000000000
      8641       110  POPC      C316           -9.0557266416      -16.7683755710       -0.7847197447  MEMB      58              0.0000000000
      8642       110  POPC      H16X           -9.4883280334      -16.6060293516        0.2258699012  MEMB      58              0.0000000000
      8643       110  POPC      H16Y           -9.3227250019      -15.9024053456       -1.4194133428  MEMB      58              0.0000000000
      8644       110  POPC      H16Z           -7.9493586818      -16.8065782166       -0.6977916425  MEMB      58              0.0000000000
      8645       111  POPC      N               3.8493773662      -15.4504295019      -20.3532787892  MEMB      59              0.0000000000
      8646       111  POPC      C12             3.7778045673      -15.7178702812      -18.8584175555  MEMB      59              0.0000000000
      8647       111  POPC      H12A            3.5293618066      -16.7796631630      -18.7305879237  MEMB      59              0.0000000000
      8648       111  POPC      H12B            2.9680028925      -15.1572559382      -18.4290946479  MEMB      59              0.0000000000
      8649       111  POPC      C13             4.8740752240      -16.3802858539      -20.9242012015  MEMB      59              0.0000000000
      8650       111  POPC      H13A            4.8781643944      -16.4163901165      -21.9989673556  MEMB      59              0.0000000000
      8651       111  POPC      H13B            5.8605646900      -16.1115310610      -20.5645480037  MEMB      59              0.0000000000
      8652       111  POPC      H13C            4.7007246813      -17.3916179200      -20.5476577024  MEMB      59              0.0000000000
      8653       111  POPC      C14             2.5550257859      -15.8094715095      -21.0233177376  MEMB      59              0.0000000000
      8654       111  POPC      H14A            2.6064329713      -15.5772056714      -22.0862702419  MEMB      59              0.0000000000
      8655       111  POPC      H14B            2.3737849580      -16.8871027064      -20.9512641624  MEMB      59              0.0000000000
      8656       111  POPC      H14C            1.7199894475      -15.2731882486      -20.6147664544  MEMB      59              0.0000000000
      8657       111  POPC      C15             4.2549839449      -14.0548961889      -20.6923217337  MEMB      59              0.0000000000
      8658       111  POPC      H15A            3.5484287086      -13.3099539213      -20.3634206261  MEMB      59              0.0000000000
      8659       111  POPC      H15B            4.3489626410      -13.9165232020      -21.7711610060  MEMB      59              0.0000000000
      8660       111  POPC      H15C            5.2508936833      -13.8396887824      -20.3155870325  MEMB      59              0.0000000000
      8661       111  POPC      C11             5.0603209650      -15.4966340724      -18.0104914287  MEMB      59              0.0000000000
      8662       111  POPC      H11A            4.7998404566      -15.5515810949      -16.9295086533  MEMB      59              0.0000000000
      8663       111  POPC      H11B            5.4514824596      -14.4706557693      -18.1785271835  MEMB      59              0.0000000000
      8664       111  POPC      P               5.8936429190      -17.9763577089      -17.9772430858  MEMB      59              0.0000000000
      8665       111  POPC      O13             7.1442842109      -18.6789958802      -18.3395318042  MEMB      59              0.0000000000
      8666       111  POPC      O14             4.6551529250      -18.4099569578      -18.6581171744  MEMB      59              0.0000000000
      8667       111  POPC      O12             6.0866751602      -16.4359333415      -18.3264945888  MEMB      59              0.0000000000
      8668       111  POPC      O11             5.6873265493      -17.9869782975      -16.4010498396  MEMB      59              0.0000000000
      8669       111  POPC      C1              6.6101966773      -17.3546435016      -15.5073985830  MEMB      59              0.0000000000
      8670       111  POPC      HA              6.9969918133      -16.3984875895      -15.9384722913  MEMB      59              0.0000000000
      8671       111  POPC      HB              7.4813508892      -18.0158617165      -15.3057845949  MEMB      59              0.0000000000
      8672       111  POPC      C2              5.9305684663      -16.9675119436      -14.1552866508  MEMB      59              0.0000000000
      8673       111  POPC      HS              6.2476334303      -15.9101981368      -13.9701140650  MEMB      59              0.0000000000
      8674       111  POPC      O21             6.3126331293      -17.8568206520      -13.0698901228  MEMB      59              0.0000000000
      8675       111  POPC      C21             6.3500276524      -17.2074475152      -11.9061823065  MEMB      59              0.0000000000
      8676       111  POPC      O22             6.5775221034      -16.0188986281      -11.7690152386  MEMB      59              0.0000000000
      8677       111  POPC      C22             5.9870832212      -18.1155960829      -10.7375572147  MEMB      59              0.0000000000
      8678       111  POPC      H2R             5.5465101250      -19.0551513706      -11.1127227030  MEMB      59              0.0000000000
      8679       111  POPC      H2S             5.1982177544      -17.5826062654      -10.1627763591  MEMB      59              0.0000000000
      8680       111  POPC      C3              4.3784731210      -16.9590888242      -14.2757883301  MEMB      59              0.0000000000
      8681       111  POPC      HX              4.0649562799      -17.9296038857      -14.7221171337  MEMB      59              0.0000000000
      8682       111  POPC      HY              4.1085751408      -16.1387649240      -14.9788091607  MEMB      59              0.0000000000
      8683       111  POPC      O31             3.7458098817      -16.8144383795      -12.9856303383  MEMB      59              0.0000000000
      8684       111  POPC      C31             2.4795337454      -16.4226837747      -13.0522492157  MEMB      59              0.0000000000
      8685       111  POPC      O32             1.9096978075      -16.0329015960      -14.0579293211  MEMB      59              0.0000000000
      8686       111  POPC      C32             1.8280732692      -16.5871219293      -11.6801575285  MEMB      59              0.0000000000
      8687       111  POPC      H2X             1.1729993410      -15.7111069755      -11.4999970611  MEMB      59              0.0000000000
      8688       111  POPC      H2Y             2.6164285900      -16.6136413239      -10.9007653733  MEMB      59              0.0000000000
      8689       111  POPC      C23             7.2107563086      -18.3363706887       -9.8295276489  MEMB      59              0.0000000000
      8690       111  POPC      H3R             7.6772796563      -17.3507806147       -9.5923602794  MEMB      59              0.0000000000
      8691       111  POPC      H3S             7.9641834016      -18.9469102938      -10.3771977467  MEMB      59              0.0000000000
      8692       111  POPC      C24             6.8650264796      -19.0259355186       -8.5054871545  MEMB      59              0.0000000000
      8693       111  POPC      H4R             6.3924508115      -20.0066119684       -8.7403219333  MEMB      59              0.0000000000
      8694       111  POPC      H4S             6.1159646705      -18.4237758031       -7.9461677553  MEMB      59              0.0000000000
      8695       111  POPC      C25             8.1144781236      -19.2448432364       -7.6414932991  MEMB      59              0.0000000000
      8696       111  POPC      H5R             9.0186685036      -19.2158250127       -8.2886591385  MEMB      59              0.0000000000
      8697       111  POPC      H5S             8.0695631251      -20.2678735046       -7.2006455064  MEMB      59              0.0000000000
      8698       111  POPC      C26             8.2719255805      -18.2563585144       -6.4719593418  MEMB      59              0.0000000000
      8699       111  POPC      H6R             9.2280279427      -18.4960531850       -5.9613337666  MEMB      59              0.0000000000
      8700       111  POPC      H6S             7.4487312253      -18.4470875281       -5.7457770784  MEMB      59              0.0000000000
      8701       111  POPC      C27             8.2459533371      -16.7539951647       -6.8154039384  MEMB      59              0.0000000000
      8702       111  POPC      H7R             7.2844368164      -16.5240709262       -7.3265664118  MEMB      59              0.0000000000
      8703       111  POPC      H7S             9.0753490172      -16.5005266961       -7.5126891218  MEMB      59              0.0000000000
      8704       111  POPC      C28             8.3525855902      -15.8867749573       -5.5369590995  MEMB      59              0.0000000000
      8705       111  POPC      H8R             9.4127391508      -15.8943796387       -5.2022876871  MEMB      59              0.0000000000
      8706       111  POPC      H8S             7.7930177715      -16.4093217907       -4.7388419899  MEMB      59              0.0000000000
      8707       111  POPC      C29             7.8785992700      -14.4578580961       -5.6754814580  MEMB      59              0.0000000000
      8708       111  POPC      H91             8.5694858636      -13.8209356325       -6.2494247814  MEMB      59              0.0000000000
      8709       111  POPC      C210            6.7554214491      -13.8900356550       -5.1801571032  MEMB      59              0.0000000000
      8710       111  POPC      H101            6.6008626493      -12.8218629826       -5.3774236930  MEMB      59              0.0000000000
      8711       111  POPC      C211            5.6583839072      -14.5264746240       -4.3517245637  MEMB      59              0.0000000000
      8712       111  POPC      H11R            6.0478121716      -14.7534057215       -3.3413153537  MEMB      59              0.0000000000
      8713       111  POPC      H11S            5.3268251645      -15.4736108321       -4.8275435616  MEMB      59              0.0000000000
      8714       111  POPC      C212            4.4133281556      -13.6369112436       -4.1219875846  MEMB      59              0.0000000000
      8715       111  POPC      H12R            4.0080207283      -13.3655805843       -5.1233116272  MEMB      59              0.0000000000
      8716       111  POPC      H12S            4.7321067673      -12.7133856109       -3.5945662298  MEMB      59              0.0000000000
      8717       111  POPC      C213            3.2540034287      -14.2326181485       -3.2904079429  MEMB      59              0.0000000000
      8718       111  POPC      H13R            3.1542328351      -15.3126255971       -3.5010301808  MEMB      59              0.0000000000
      8719       111  POPC      H13S            2.3067139615      -13.7644530455       -3.6422669183  MEMB      59              0.0000000000
      8720       111  POPC      C214            3.3438316996      -13.9629794269       -1.7699591748  MEMB      59              0.0000000000
      8721       111  POPC      H14R            3.4845863339      -12.8757855682       -1.5940896055  MEMB      59              0.0000000000
      8722       111  POPC      H14S            4.2434542216      -14.4621311028       -1.3557245192  MEMB      59              0.0000000000
      8723       111  POPC      C215            2.0920577165      -14.4298142749       -0.9966785231  MEMB      59              0.0000000000
      8724       111  POPC      H15R            1.7166665693      -15.3687673214       -1.4648725012  MEMB      59              0.0000000000
      8725       111  POPC      H15S            1.2912766286      -13.6664733387       -1.1117542155  MEMB      59              0.0000000000
      8726       111  POPC      C216            2.3114603556      -14.7314236206        0.5024556016  MEMB      59              0.0000000000
      8727       111  POPC      H16R            2.9682721073      -15.6267282030        0.5852476027  MEMB      59              0.0000000000
      8728       111  POPC      H16S            1.3311016063      -14.9970260061        0.9615353220  MEMB      59              0.0000000000
      8729       111  POPC      C217            2.9351435059      -13.5957341571        1.3302362212  MEMB      59              0.0000000000
      8730       111  POPC      H17R            3.8794309818      -13.2588869828        0.8486209573  MEMB      59              0.0000000000
      8731       111  POPC      H17S            3.2092908957      -14.0054957845        2.3308823602  MEMB      59              0.0000000000
      8732       111  POPC      C218            2.0058946400      -12.3981821732        1.5429158893  MEMB      59              0.0000000000
      8733       111  POPC      H18R            1.6762610787      -11.9821232218        0.5682204605  MEMB      59              0.0000000000
      8734       111  POPC      H18S            2.5323710245      -11.5993306050        2.1046381497  MEMB      59              0.0000000000
      8735       111  POPC      H18T            1.1067369405      -12.6963224309        2.1259691565  MEMB      59              0.0000000000
      8736       111  POPC      C33             1.0076772388      -17.8924692484      -11.7206922451  MEMB      59              0.0000000000
      8737       111  POPC      H3X             1.6643749887      -18.7100968920      -12.0817516720  MEMB      59              0.0000000000
      8738       111  POPC      H3Y             0.2051106286      -17.7716332800      -12.4894786979  MEMB      59              0.0000000000
      8739       111  POPC      C34             0.3342820214      -18.3469606620      -10.4125668938  MEMB      59              0.0000000000
      8740       111  POPC      H4X             0.0372218342      -19.4131951553      -10.5448011111  MEMB      59              0.0000000000
      8741       111  POPC      H4Y            -0.6061279958      -17.7580252167      -10.3112808529  MEMB      59              0.0000000000
      8742       111  POPC      C35             1.1252096762      -18.1900944937       -9.0953175536  MEMB      59              0.0000000000
      8743       111  POPC      H5X             0.4387133789      -18.4836971071       -8.2672490174  MEMB      59              0.0000000000
      8744       111  POPC      H5Y             1.3764398861      -17.1177924495       -8.9479210737  MEMB      59              0.0000000000
      8745       111  POPC      C36             2.4067118225      -19.0316751687       -8.9563280293  MEMB      59              0.0000000000
      8746       111  POPC      H6X             3.0686561857      -18.8363034884       -9.8285387057  MEMB      59              0.0000000000
      8747       111  POPC      H6Y             2.1412199600      -20.1136957610       -8.9828726346  MEMB      59              0.0000000000
      8748       111  POPC      C37             3.2011754769      -18.7438899078       -7.6589496665  MEMB      59              0.0000000000
      8749       111  POPC      H7X             3.5650390276      -17.6928226931       -7.6572305514  MEMB      59              0.0000000000
      8750       111  POPC      H7Y             4.0891352434      -19.4158732686       -7.6667688797  MEMB      59              0.0000000000
      8751       111  POPC      C38             2.4146568440      -19.0055102505       -6.3605932108  MEMB      59              0.0000000000
      8752       111  POPC      H8X             1.8861727478      -19.9776627349       -6.5092116475  MEMB      59              0.0000000000
      8753       111  POPC      H8Y             1.6372468835      -18.2292538585       -6.1999748606  MEMB      59              0.0000000000
      8754       111  POPC      C39             3.2740897261      -19.1806490401       -5.0905552197  MEMB      59              0.0000000000
      8755       111  POPC      H9X             4.2259882130      -19.6976962440       -5.3370678462  MEMB      59              0.0000000000
      8756       111  POPC      H9Y             2.6922730338      -19.8590561436       -4.4277734163  MEMB      59              0.0000000000
      8757       111  POPC      C310            3.5809373472      -17.9260913647       -4.2491077234  MEMB      59              0.0000000000
      8758       111  POPC      H10X            2.6686502445      -17.2950463863       -4.1668230655  MEMB      59              0.0000000000
      8759       111  POPC      H10Y            4.3691169302      -17.3354640012       -4.7583449998  MEMB      59              0.0000000000
      8760       111  POPC      C311            4.0386725889      -18.3229513260       -2.8287139778  MEMB      59              0.0000000000
      8761       111  POPC      H11X            4.6744887966      -19.2301829003       -2.9095140433  MEMB      59              0.0000000000
      8762       111  POPC      H11Y            3.1301265834      -18.5616412701       -2.2328406026  MEMB      59              0.0000000000
      8763       111  POPC      C312            4.8471706364      -17.3096374495       -2.0157859072  MEMB      59              0.0000000000
      8764       111  POPC      H12X            4.8159153335      -17.5898895816       -0.9375517364  MEMB      59              0.0000000000
      8765       111  POPC      H12Y            4.3721653616      -16.3222426197       -2.1067863993  MEMB      59              0.0000000000
      8766       111  POPC      C313            6.3094131326      -17.2264259760       -2.4529837136  MEMB      59              0.0000000000
      8767       111  POPC      H13X            6.3119835888      -16.8862232340       -3.5033736083  MEMB      59              0.0000000000
      8768       111  POPC      H13Y            6.7980146052      -18.2191159121       -2.4496770525  MEMB      59              0.0000000000
      8769       111  POPC      C314            7.1275726213      -16.2732315906       -1.5854927719  MEMB      59              0.0000000000
      8770       111  POPC      H14X            6.4922661994      -15.4311302843       -1.2250914258  MEMB      59              0.0000000000
      8771       111  POPC      H14Y            7.9588716558      -15.8362930971       -2.1841717593  MEMB      59              0.0000000000
      8772       111  POPC      C315            7.7341259967      -16.9876157200       -0.3918844643  MEMB      59              0.0000000000
      8773       111  POPC      H15X            8.3245590676      -17.8720912462       -0.7261698603  MEMB      59              0.0000000000
      8774       111  POPC      H15Y            6.9063116456      -17.3469978566        0.2582069694  MEMB      59              0.0000000000
      8775       111  POPC      C316            8.6258014667      -16.0500193352        0.3923617361  MEMB      59              0.0000000000
      8776       111  POPC      H16X            8.9412936418      -16.5543140975        1.3300919911  MEMB      59              0.0000000000
      8777       111  POPC      H16Y            8.0635015657      -15.1224719572        0.6372927533  MEMB      59              0.0000000000
      8778       111  POPC      H16Z            9.5255161444      -15.7654195960       -0.1938997343  MEMB      59              0.0000000000
      8779       112  POPC      N              10.0840013860      -15.5758979652      -19.4352423653  MEMB      60              0.0000000000
      8780       112  POPC      C12            10.7898440295      -16.0690670815      -20.6882934677  MEMB      60              0.0000000000
      8781       112  POPC      H12A           10.1686645913      -15.8607418496      -21.5504892484  MEMB      60              0.0000000000
      8782       112  POPC      H12B           10.8718525835      -17.1506874578      -20.6148736628  MEMB      60              0.0000000000
      8783       112  POPC      C13             9.9115822514      -14.0854086097      -19.5062659781  MEMB      60              0.0000000000
      8784       112  POPC      H13A            9.3103038826      -13.7843606130      -20.3595386395  MEMB      60              0.0000000000
      8785       112  POPC      H13B            9.4397663685      -13.7061755514      -18.6114109725  MEMB      60              0.0000000000
      8786       112  POPC      H13C           10.8958300034      -13.6304277604      -19.5864272222  MEMB      60              0.0000000000
      8787       112  POPC      C14             8.7413791830      -16.2159882284      -19.3365791681  MEMB      60              0.0000000000
      8788       112  POPC      H14A            8.2283590492      -16.2004710714      -20.2920023599  MEMB      60              0.0000000000
      8789       112  POPC      H14B            8.7490827859      -17.2620985642      -19.0278298333  MEMB      60              0.0000000000
      8790       112  POPC      H14C            8.0972812328      -15.7046771922      -18.6255547624  MEMB      60              0.0000000000
      8791       112  POPC      C15            10.9174647157      -15.8997256815      -18.2307772164  MEMB      60              0.0000000000
      8792       112  POPC      H15A           11.1453119100      -16.9572502010      -18.1731332163  MEMB      60              0.0000000000
      8793       112  POPC      H15B           10.4605914014      -15.5929259008      -17.3058518600  MEMB      60              0.0000000000
      8794       112  POPC      H15C           11.8916463650      -15.4140802445      -18.3035123189  MEMB      60              0.0000000000
      8795       112  POPC      C11            12.2270966690      -15.6001104706      -20.9859344871  MEMB      60              0.0000000000
      8796       112  POPC      H11A           12.3681554367      -14.5189365830      -20.7535143406  MEMB      60              0.0000000000
      8797       112  POPC      H11B           12.4200079002      -15.7333420989      -22.0768585606  MEMB      60              0.0000000000
      8798       112  POPC      P              14.4706265941      -15.9492885764      -19.6480334919  MEMB      60              0.0000000000
      8799       112  POPC      O13            15.3067049998      -15.3622329772      -20.7194596568  MEMB      60              0.0000000000
      8800       112  POPC      O14            15.0652466525      -17.0308068437      -18.8477099696  MEMB      60              0.0000000000
      8801       112  POPC      O12            13.1078126059      -16.4533807805      -20.2758958499  MEMB      60              0.0000000000
      8802       112  POPC      O11            14.0068388170      -14.7678739079      -18.6808733667  MEMB      60              0.0000000000
      8803       112  POPC      C1             15.0484485835      -14.1134447993      -17.9304997930  MEMB      60              0.0000000000
      8804       112  POPC      HA             14.6610421526      -13.1206321762      -17.6199556328  MEMB      60              0.0000000000
      8805       112  POPC      HB             15.9578269536      -13.9143249176      -18.5510942083  MEMB      60              0.0000000000
      8806       112  POPC      C2             15.5067216104      -14.8759612234      -16.6371852539  MEMB      60              0.0000000000
      8807       112  POPC      HS             16.1229315439      -15.7402798654      -16.9848736180  MEMB      60              0.0000000000
      8808       112  POPC      O21            14.3501344786      -15.3369416854      -15.8967722301  MEMB      60              0.0000000000
      8809       112  POPC      C21            14.6663324127      -16.3456235583      -15.0832833836  MEMB      60              0.0000000000
      8810       112  POPC      O22            15.7748638417      -16.8121221818      -14.9192111670  MEMB      60              0.0000000000
      8811       112  POPC      C22            13.4426983637      -16.7558804808      -14.2477876523  MEMB      60              0.0000000000
      8812       112  POPC      H2R            13.0355134746      -17.6844597222      -14.6969107048  MEMB      60              0.0000000000
      8813       112  POPC      H2S            12.6737971918      -15.9610538701      -14.2905374038  MEMB      60              0.0000000000
      8814       112  POPC      C3             16.4122725550      -13.9401191108      -15.7569364699  MEMB      60              0.0000000000
      8815       112  POPC      HX             16.2063298839      -12.8929692274      -16.0661176719  MEMB      60              0.0000000000
      8816       112  POPC      HY             17.4713517968      -14.1403243091      -16.0426204420  MEMB      60              0.0000000000
      8817       112  POPC      O31            16.1441793937      -14.0362156596      -14.3330314291  MEMB      60              0.0000000000
      8818       112  POPC      C31            17.1729807186      -14.3282241103      -13.5395101470  MEMB      60              0.0000000000
      8819       112  POPC      O32            18.2962358590      -14.6037305722      -13.9180066760  MEMB      60              0.0000000000
      8820       112  POPC      C32            16.7896380933      -14.1313380077      -12.0652323141  MEMB      60              0.0000000000
      8821       112  POPC      H2X            16.0572480251      -14.9096846748      -11.7864048316  MEMB      60              0.0000000000
      8822       112  POPC      H2Y            16.3068365264      -13.1387304905      -11.9793711992  MEMB      60              0.0000000000
      8823       112  POPC      C23            13.8863237185      -17.0152694257      -12.7822575566  MEMB      60              0.0000000000
      8824       112  POPC      H3R            14.4400108846      -16.1310350862      -12.4035703184  MEMB      60              0.0000000000
      8825       112  POPC      H3S            14.5984043530      -17.8742044315      -12.7843218814  MEMB      60              0.0000000000
      8826       112  POPC      C24            12.7659994183      -17.3432407307      -11.7798998268  MEMB      60              0.0000000000
      8827       112  POPC      H4R            13.2389970835      -17.7461540487      -10.8536554318  MEMB      60              0.0000000000
      8828       112  POPC      H4S            12.1287629631      -18.1510709102      -12.2043363594  MEMB      60              0.0000000000
      8829       112  POPC      C25            11.8813531440      -16.1516423900      -11.3661205151  MEMB      60              0.0000000000
      8830       112  POPC      H5R            11.0861338880      -16.5356987016      -10.6836963354  MEMB      60              0.0000000000
      8831       112  POPC      H5S            11.3785440019      -15.7360390618      -12.2669734701  MEMB      60              0.0000000000
      8832       112  POPC      C26            12.6158752002      -15.0105788426      -10.6350852085  MEMB      60              0.0000000000
      8833       112  POPC      H6R            13.3010854288      -14.4895610952      -11.3392773175  MEMB      60              0.0000000000
      8834       112  POPC      H6S            13.2321577358      -15.4310991655       -9.8080010891  MEMB      60              0.0000000000
      8835       112  POPC      C27            11.6245842309      -13.9946078103      -10.0398657689  MEMB      60              0.0000000000
      8836       112  POPC      H7R            10.9762452304      -14.5417683082       -9.3155871020  MEMB      60              0.0000000000
      8837       112  POPC      H7S            10.9736750493      -13.6094256604      -10.8570481822  MEMB      60              0.0000000000
      8838       112  POPC      C28            12.2949426481      -12.8123774923       -9.3169306028  MEMB      60              0.0000000000
      8839       112  POPC      H8R            12.8865013445      -12.2163013335      -10.0452746421  MEMB      60              0.0000000000
      8840       112  POPC      H8S            13.0272257648      -13.2223729310       -8.5857172087  MEMB      60              0.0000000000
      8841       112  POPC      C29            11.2738382450      -11.9322115186       -8.6366626535  MEMB      60              0.0000000000
      8842       112  POPC      H91            10.7454006464      -11.2201233948       -9.2919782895  MEMB      60              0.0000000000
      8843       112  POPC      C210           10.9439296182      -11.9797706154       -7.3345226363  MEMB      60              0.0000000000
      8844       112  POPC      H101           10.1759498147      -11.2899030131       -6.9522436224  MEMB      60              0.0000000000
      8845       112  POPC      C211           11.5203662005      -12.9157522052       -6.3046548323  MEMB      60              0.0000000000
      8846       112  POPC      H11R           11.7179272794      -13.9232472636       -6.7349740344  MEMB      60              0.0000000000
      8847       112  POPC      H11S           10.7606658912      -13.0663648176       -5.5053260824  MEMB      60              0.0000000000
      8848       112  POPC      C212           12.8103784737      -12.4124240361       -5.6269359726  MEMB      60              0.0000000000
      8849       112  POPC      H12R           12.7054318803      -11.3306585884       -5.3871227384  MEMB      60              0.0000000000
      8850       112  POPC      H12S           13.6782442336      -12.5082499820       -6.3116184471  MEMB      60              0.0000000000
      8851       112  POPC      C213           13.0670154606      -13.1783224877       -4.3197059543  MEMB      60              0.0000000000
      8852       112  POPC      H13R           13.3903955948      -14.2165752939       -4.5282813381  MEMB      60              0.0000000000
      8853       112  POPC      H13S           12.0915735858      -13.2444952577       -3.7849559014  MEMB      60              0.0000000000
      8854       112  POPC      C214           14.0601129801      -12.4997254484       -3.3709736112  MEMB      60              0.0000000000
      8855       112  POPC      H14R           13.8628786531      -11.4059584314       -3.3882816428  MEMB      60              0.0000000000
      8856       112  POPC      H14S           15.1058232545      -12.6508922002       -3.7148906022  MEMB      60              0.0000000000
      8857       112  POPC      C215           13.8916135956      -12.9979479266       -1.9293288803  MEMB      60              0.0000000000
      8858       112  POPC      H15R           14.5234399581      -13.9001086022       -1.7791061119  MEMB      60              0.0000000000
      8859       112  POPC      H15S           12.8366345653      -13.3151784616       -1.7626960968  MEMB      60              0.0000000000
      8860       112  POPC      C216           14.2108264686      -11.9280061423       -0.8768705563  MEMB      60              0.0000000000
      8861       112  POPC      H16R           13.4070030402      -11.1584681885       -0.8832658158  MEMB      60              0.0000000000
      8862       112  POPC      H16S           15.1678509373      -11.4189122539       -1.1281084563  MEMB      60              0.0000000000
      8863       112  POPC      C217           14.3096411808      -12.5428726343        0.5198613875  MEMB      60              0.0000000000
      8864       112  POPC      H17R           15.2215967549      -13.1794371732        0.5452499175  MEMB      60              0.0000000000
      8865       112  POPC      H17S           13.4324631914      -13.2115651879        0.6813263804  MEMB      60              0.0000000000
      8866       112  POPC      C218           14.3765003350      -11.5220599326        1.6531982297  MEMB      60              0.0000000000
      8867       112  POPC      H18R           15.2319510701      -10.8281219999        1.5112440481  MEMB      60              0.0000000000
      8868       112  POPC      H18S           14.5054276671      -12.0351428872        2.6317516353  MEMB      60              0.0000000000
      8869       112  POPC      H18T           13.4391578885      -10.9259412129        1.6931465989  MEMB      60              0.0000000000
      8870       112  POPC      C33            18.0254099754      -14.1994368634      -11.1292228721  MEMB      60              0.0000000000
      8871       112  POPC      H3X            18.8683677214      -13.6398257285      -11.6016728216  MEMB      60              0.0000000000
      8872       112  POPC      H3Y            18.3598713812      -15.2572749778      -11.0270151068  MEMB      60              0.0000000000
      8873       112  POPC      C34            17.8229144744      -13.5848609591       -9.7309065523  MEMB      60              0.0000000000
      8874       112  POPC      H4X            17.5657575643      -12.5059491204       -9.8231338693  MEMB      60              0.0000000000
      8875       112  POPC      H4Y            18.7954049995      -13.6557140452       -9.1882401221  MEMB      60              0.0000000000
      8876       112  POPC      C35            16.7623863278      -14.2845820191       -8.8702047556  MEMB      60              0.0000000000
      8877       112  POPC      H5X            16.9092344838      -15.3850705265       -8.9454167613  MEMB      60              0.0000000000
      8878       112  POPC      H5Y            15.7481232865      -14.0500318060       -9.2668787303  MEMB      60              0.0000000000
      8879       112  POPC      C36            16.8406133566      -13.8627712646       -7.3918336734  MEMB      60              0.0000000000
      8880       112  POPC      H6X            16.7528874644      -12.7528894424       -7.3346606624  MEMB      60              0.0000000000
      8881       112  POPC      H6Y            17.8325901426      -14.1412518121       -6.9708629270  MEMB      60              0.0000000000
      8882       112  POPC      C37            15.7312060925      -14.4800435563       -6.5282399563  MEMB      60              0.0000000000
      8883       112  POPC      H7X            14.7583297627      -14.2114705223       -6.9918305616  MEMB      60              0.0000000000
      8884       112  POPC      H7Y            15.7508043210      -14.0224906151       -5.5133923342  MEMB      60              0.0000000000
      8885       112  POPC      C38            15.8201201060      -16.0078022749       -6.3776646839  MEMB      60              0.0000000000
      8886       112  POPC      H8X            16.7487502489      -16.2498673432       -5.8164407648  MEMB      60              0.0000000000
      8887       112  POPC      H8Y            15.8916873290      -16.4887309605       -7.3759662284  MEMB      60              0.0000000000
      8888       112  POPC      C39            14.6206927316      -16.6164906397       -5.6337713766  MEMB      60              0.0000000000
      8889       112  POPC      H9X            14.4596918473      -16.0508362045       -4.6905528968  MEMB      60              0.0000000000
      8890       112  POPC      H9Y            14.8615174488      -17.6653933771       -5.3494367708  MEMB      60              0.0000000000
      8891       112  POPC      C310           13.3367438298      -16.6244147966       -6.4767997076  MEMB      60              0.0000000000
      8892       112  POPC      H10X           13.3650749741      -17.4825939736       -7.1833378452  MEMB      60              0.0000000000
      8893       112  POPC      H10Y           13.2991308458      -15.7010230303       -7.0978939883  MEMB      60              0.0000000000
      8894       112  POPC      C311           12.0258280133      -16.6584755101       -5.6727204158  MEMB      60              0.0000000000
      8895       112  POPC      H11X           11.2041412731      -16.6149682229       -6.4265480920  MEMB      60              0.0000000000
      8896       112  POPC      H11Y           11.9293415675      -15.7412102328       -5.0585646662  MEMB      60              0.0000000000
      8897       112  POPC      C312           11.7968956373      -17.9108909484       -4.8098714191  MEMB      60              0.0000000000
      8898       112  POPC      H12X           12.0903098790      -18.8107496852       -5.3931267923  MEMB      60              0.0000000000
      8899       112  POPC      H12Y           10.7041953686      -17.9817254604       -4.6074730965  MEMB      60              0.0000000000
      8900       112  POPC      C313           12.4709731222      -17.9344876848       -3.4263151959  MEMB      60              0.0000000000
      8901       112  POPC      H13X           13.5759456152      -17.9317257520       -3.5272207273  MEMB      60              0.0000000000
      8902       112  POPC      H13Y           12.1844166222      -18.8989603172       -2.9490143364  MEMB      60              0.0000000000
      8903       112  POPC      C314           12.0378314499      -16.7770878911       -2.5092790358  MEMB      60              0.0000000000
      8904       112  POPC      H14X           10.9268411201      -16.7599759270       -2.4471443221  MEMB      60              0.0000000000
      8905       112  POPC      H14Y           12.3628188513      -15.8148284086       -2.9631781536  MEMB      60              0.0000000000
      8906       112  POPC      C315           12.6247747910      -16.8601148877       -1.0905741767  MEMB      60              0.0000000000
      8907       112  POPC      H15X           12.3136199634      -15.9497975995       -0.5277006442  MEMB      60              0.0000000000
      8908       112  POPC      H15Y           13.7356271721      -16.8341926979       -1.1699801491  MEMB      60              0.0000000000
      8909       112  POPC      C316           12.2021972081      -18.1009204652       -0.2969661188  MEMB      60              0.0000000000
      8910       112  POPC      H16X           12.5812932515      -19.0269443874       -0.7786816243  MEMB      60              0.0000000000
      8911       112  POPC      H16Y           11.0941257633      -18.1643634810       -0.2341288329  MEMB      60              0.0000000000
      8912       112  POPC      H16Z           12.6070781747      -18.0630325999        0.7359664788  MEMB      60              0.0000000000
      8913       113  POPC      N             -20.4454053743        2.2560734581      -19.9119221119  MEMB      61              0.0000000000
      8914       113  POPC      C12           -21.2606160748        2.7621633473      -18.7356369562  MEMB      61              0.0000000000
      8915       113  POPC      H12A          -20.6496120851        3.4238233803      -18.1437224175  MEMB      61              0.0000000000
      8916       113  POPC      H12B          -21.4493977733        1.9197338756      -18.0626583591  MEMB      61              0.0000000000
      8917       113  POPC      C13           -20.0606573599        3.4226552840      -20.7678210380  MEMB      61              0.0000000000
      8918       113  POPC      H13A          -19.5171528482        3.0718645153      -21.6425146544  MEMB      61              0.0000000000
      8919       113  POPC      H13B          -20.9565785076        3.9411509474      -21.1064281490  MEMB      61              0.0000000000
      8920       113  POPC      H13C          -19.4291806543        4.1146314383      -20.2301414362  MEMB      61              0.0000000000
      8921       113  POPC      C14           -19.2251460451        1.5149710915      -19.4513728348  MEMB      61              0.0000000000
      8922       113  POPC      H14A          -19.4598071991        0.5502895607      -18.9965838965  MEMB      61              0.0000000000
      8923       113  POPC      H14B          -18.5630240041        1.2884481348      -20.2772454532  MEMB      61              0.0000000000
      8924       113  POPC      H14C          -18.6469903966        2.0455010074      -18.6994394519  MEMB      61              0.0000000000
      8925       113  POPC      C15           -21.3079068237        1.3572892012      -20.7511111504  MEMB      61              0.0000000000
      8926       113  POPC      H15A          -22.1981084952        1.9203996779      -21.0353381034  MEMB      61              0.0000000000
      8927       113  POPC      H15B          -21.6850016472        0.5264025112      -20.1709524685  MEMB      61              0.0000000000
      8928       113  POPC      H15C          -20.7869123890        0.9937647146      -21.6217965076  MEMB      61              0.0000000000
      8929       113  POPC      C11           -22.6541187712        3.4182328811      -18.9875356998  MEMB      61              0.0000000000
      8930       113  POPC      H11A          -22.5652856777        4.2260002459      -19.7464539243  MEMB      61              0.0000000000
      8931       113  POPC      H11B          -22.9832662078        3.9201131936      -18.0418659071  MEMB      61              0.0000000000
      8932       113  POPC      P             -24.2672074305        1.4777663210      -18.3474509404  MEMB      61              0.0000000000
      8933       113  POPC      O13           -24.9698425888        0.3959251823      -19.0854615457  MEMB      61              0.0000000000
      8934       113  POPC      O14           -25.0246545909        2.2301227874      -17.3368369261  MEMB      61              0.0000000000
      8935       113  POPC      O12           -23.6365535921        2.4680888043      -19.4274716324  MEMB      61              0.0000000000
      8936       113  POPC      O11           -22.9611971425        0.9206287330      -17.6782986461  MEMB      61              0.0000000000
      8937       113  POPC      C1            -22.3445024849       -0.3383190627      -17.9071409013  MEMB      61              0.0000000000
      8938       113  POPC      HA            -21.2959510576       -0.2081318238      -18.2559453876  MEMB      61              0.0000000000
      8939       113  POPC      HB            -22.8878254293       -0.8965416805      -18.6870593613  MEMB      61              0.0000000000
      8940       113  POPC      C2            -22.3373578706       -1.1970845263      -16.6198293635  MEMB      61              0.0000000000
      8941       113  POPC      HS            -22.1906089477       -2.2623078312      -16.9179842098  MEMB      61              0.0000000000
      8942       113  POPC      O21           -23.5716771591       -0.9551180978      -15.9365479522  MEMB      61              0.0000000000
      8943       113  POPC      C21           -24.4800878814       -1.8785074382      -15.9505213932  MEMB      61              0.0000000000
      8944       113  POPC      O22           -24.3765631732       -2.9752534403      -16.4789001827  MEMB      61              0.0000000000
      8945       113  POPC      C22           -25.6279372045       -1.3988105891      -15.0720355822  MEMB      61              0.0000000000
      8946       113  POPC      H2R           -26.2611826851       -2.2762205392      -14.8395451158  MEMB      61              0.0000000000
      8947       113  POPC      H2S           -26.2264163809       -0.6727063115      -15.6617699905  MEMB      61              0.0000000000
      8948       113  POPC      C3            -21.1602403702       -0.8522871209      -15.6547951382  MEMB      61              0.0000000000
      8949       113  POPC      HX            -20.2223777868       -0.6713103676      -16.2270243301  MEMB      61              0.0000000000
      8950       113  POPC      HY            -20.9801266521       -1.7540061593      -15.0262256423  MEMB      61              0.0000000000
      8951       113  POPC      O31           -21.4881461211        0.2192332079      -14.7537438472  MEMB      61              0.0000000000
      8952       113  POPC      C31           -21.2887470916        1.4493591104      -15.2081396334  MEMB      61              0.0000000000
      8953       113  POPC      O32           -20.6789702632        1.7436980842      -16.2217289168  MEMB      61              0.0000000000
      8954       113  POPC      C32           -21.8629417059        2.4679540712      -14.2311621476  MEMB      61              0.0000000000
      8955       113  POPC      H2X           -22.9412810921        2.6059784556      -14.4552015925  MEMB      61              0.0000000000
      8956       113  POPC      H2Y           -21.3409206471        3.4323402122      -14.3892513538  MEMB      61              0.0000000000
      8957       113  POPC      C23           -25.1098819515       -0.7249095661      -13.7682166911  MEMB      61              0.0000000000
      8958       113  POPC      H3R           -25.9941481578       -0.5914457744      -13.1089521626  MEMB      61              0.0000000000
      8959       113  POPC      H3S           -24.7115764490        0.2894598903      -14.0030498538  MEMB      61              0.0000000000
      8960       113  POPC      C24           -24.0055486422       -1.5376120630      -13.0557727927  MEMB      61              0.0000000000
      8961       113  POPC      H4R           -23.0415940218       -1.4255964761      -13.5976990111  MEMB      61              0.0000000000
      8962       113  POPC      H4S           -24.2829517079       -2.6083609843      -13.1204145953  MEMB      61              0.0000000000
      8963       113  POPC      C25           -23.7260452720       -1.1790700923      -11.5875061023  MEMB      61              0.0000000000
      8964       113  POPC      H5R           -23.0712700964       -0.2915989185      -11.5032377935  MEMB      61              0.0000000000
      8965       113  POPC      H5S           -23.1586506528       -2.0222796723      -11.1325328349  MEMB      61              0.0000000000
      8966       113  POPC      C26           -24.9893225784       -0.9149255945      -10.7740246564  MEMB      61              0.0000000000
      8967       113  POPC      H6R           -25.7398519991       -1.6988861840      -11.0190245034  MEMB      61              0.0000000000
      8968       113  POPC      H6S           -25.4148130536        0.0698060857      -11.0739067464  MEMB      61              0.0000000000
      8969       113  POPC      C27           -24.7357949257       -0.9175137671       -9.2642624903  MEMB      61              0.0000000000
      8970       113  POPC      H7R           -24.1754944733       -0.0027128138       -8.9730715653  MEMB      61              0.0000000000
      8971       113  POPC      H7S           -24.1073458215       -1.7974393064       -8.9989749672  MEMB      61              0.0000000000
      8972       113  POPC      C28           -26.0460094774       -0.9930193285       -8.4787678360  MEMB      61              0.0000000000
      8973       113  POPC      H8R           -25.8179125061       -1.0657606714       -7.3918534216  MEMB      61              0.0000000000
      8974       113  POPC      H8S           -26.5683907251       -1.9278739314       -8.7772326785  MEMB      61              0.0000000000
      8975       113  POPC      C29           -26.9187885740        0.1877237771       -8.7948958695  MEMB      61              0.0000000000
      8976       113  POPC      H91           -27.5909358228        0.0454306698       -9.6552432130  MEMB      61              0.0000000000
      8977       113  POPC      C210          -26.9107897603        1.3728921053       -8.1699004989  MEMB      61              0.0000000000
      8978       113  POPC      H101          -27.5956878445        2.1607928529       -8.5214887149  MEMB      61              0.0000000000
      8979       113  POPC      C211          -26.0217073048        1.7663181175       -7.0213249593  MEMB      61              0.0000000000
      8980       113  POPC      H11R          -25.3395112068        0.9438651774       -6.7092961714  MEMB      61              0.0000000000
      8981       113  POPC      H11S          -26.6311107549        2.0482426200       -6.1344397180  MEMB      61              0.0000000000
      8982       113  POPC      C212          -25.1648212788        2.9636812235       -7.4544931023  MEMB      61              0.0000000000
      8983       113  POPC      H12R          -25.8311257738        3.8410833204       -7.5771831013  MEMB      61              0.0000000000
      8984       113  POPC      H12S          -24.6829119950        2.7587566652       -8.4395522779  MEMB      61              0.0000000000
      8985       113  POPC      C213          -24.0472836842        3.3110034129       -6.4665611201  MEMB      61              0.0000000000
      8986       113  POPC      H13R          -23.4754436989        4.1778686691       -6.8664207776  MEMB      61              0.0000000000
      8987       113  POPC      H13S          -23.3501630480        2.4477240616       -6.4084219078  MEMB      61              0.0000000000
      8988       113  POPC      C214          -24.5339923538        3.6434622374       -5.0525537699  MEMB      61              0.0000000000
      8989       113  POPC      H14R          -25.0765710568        2.7728925579       -4.6256148917  MEMB      61              0.0000000000
      8990       113  POPC      H14S          -25.2549529417        4.4878509688       -5.1012080695  MEMB      61              0.0000000000
      8991       113  POPC      C215          -23.3545979288        3.9979353055       -4.1412764037  MEMB      61              0.0000000000
      8992       113  POPC      H15R          -22.8497473371        4.9009990314       -4.5426713227  MEMB      61              0.0000000000
      8993       113  POPC      H15S          -22.5974323917        3.1859498595       -4.1702429002  MEMB      61              0.0000000000
      8994       113  POPC      C216          -23.7535063747        4.2517768324       -2.6867549334  MEMB      61              0.0000000000
      8995       113  POPC      H16R          -24.1570925908        3.3230238883       -2.2284230623  MEMB      61              0.0000000000
      8996       113  POPC      H16S          -24.5596247794        5.0155736321       -2.6559238226  MEMB      61              0.0000000000
      8997       113  POPC      C217          -22.5503845389        4.7511650834       -1.8854567800  MEMB      61              0.0000000000
      8998       113  POPC      H17R          -21.9841762887        5.4572256234       -2.5327200516  MEMB      61              0.0000000000
      8999       113  POPC      H17S          -21.8726519916        3.8960457122       -1.6645628328  MEMB      61              0.0000000000
      9000       113  POPC      C218          -22.9275354541        5.4733265559       -0.5981607100  MEMB      61              0.0000000000
      9001       113  POPC      H18R          -22.0172986448        5.8798720035       -0.1070260608  MEMB      61              0.0000000000
      9002       113  POPC      H18S          -23.4453327690        4.7914504682        0.1092852663  MEMB      61              0.0000000000
      9003       113  POPC      H18T          -23.6004224414        6.3270777760       -0.8265292079  MEMB      61              0.0000000000
      9004       113  POPC      C33           -21.6643718487        1.9870038348      -12.7837206823  MEMB      61              0.0000000000
      9005       113  POPC      H3X           -20.6287584382        1.5980882853      -12.6448994691  MEMB      61              0.0000000000
      9006       113  POPC      H3Y           -22.3663039102        1.1396646706      -12.6429860407  MEMB      61              0.0000000000
      9007       113  POPC      C34           -21.9339295584        3.0442274303      -11.7145301692  MEMB      61              0.0000000000
      9008       113  POPC      H4X           -22.8437350082        3.6196375148      -11.9979348139  MEMB      61              0.0000000000
      9009       113  POPC      H4Y           -21.0800062164        3.7554025268      -11.6629674186  MEMB      61              0.0000000000
      9010       113  POPC      C35           -22.1780669559        2.3993160543      -10.3463585660  MEMB      61              0.0000000000
      9011       113  POPC      H5X           -23.0552063382        1.7173789110      -10.4367528361  MEMB      61              0.0000000000
      9012       113  POPC      H5Y           -22.4484933000        3.1793284450       -9.5998949481  MEMB      61              0.0000000000
      9013       113  POPC      C36           -20.9991005733        1.5811454343       -9.8008355020  MEMB      61              0.0000000000
      9014       113  POPC      H6X           -20.1758017482        2.2637272572       -9.4973436663  MEMB      61              0.0000000000
      9015       113  POPC      H6Y           -20.5900258832        0.8840498656      -10.5652745499  MEMB      61              0.0000000000
      9016       113  POPC      C37           -21.4761104086        0.7584056574       -8.6052393566  MEMB      61              0.0000000000
      9017       113  POPC      H7X           -22.0874827003       -0.0915214224       -8.9804894573  MEMB      61              0.0000000000
      9018       113  POPC      H7Y           -22.1316803785        1.4024403475       -7.9776348520  MEMB      61              0.0000000000
      9019       113  POPC      C38           -20.3660392970        0.1942721492       -7.7289736412  MEMB      61              0.0000000000
      9020       113  POPC      H8X           -19.5510946506        0.9393817541       -7.5905612324  MEMB      61              0.0000000000
      9021       113  POPC      H8Y           -19.9496988373       -0.7001783519       -8.2338445904  MEMB      61              0.0000000000
      9022       113  POPC      C39           -20.9114137649       -0.2308334955       -6.3675093289  MEMB      61              0.0000000000
      9023       113  POPC      H9X           -20.3217250587       -1.0778560701       -5.9561545292  MEMB      61              0.0000000000
      9024       113  POPC      H9Y           -21.9522527782       -0.5925188003       -6.5097291043  MEMB      61              0.0000000000
      9025       113  POPC      C310          -20.8484933870        0.9227860970       -5.3658874065  MEMB      61              0.0000000000
      9026       113  POPC      H10X          -21.3651614089        1.8130391953       -5.7845109909  MEMB      61              0.0000000000
      9027       113  POPC      H10Y          -19.7799404685        1.2007988862       -5.2215280768  MEMB      61              0.0000000000
      9028       113  POPC      C311          -21.4607430182        0.5608699793       -4.0157063816  MEMB      61              0.0000000000
      9029       113  POPC      H11X          -21.3033571004        1.4070883732       -3.3079574719  MEMB      61              0.0000000000
      9030       113  POPC      H11Y          -20.9421930399       -0.3312394913       -3.5982886543  MEMB      61              0.0000000000
      9031       113  POPC      C312          -22.9630065482        0.2890797208       -4.0880030122  MEMB      61              0.0000000000
      9032       113  POPC      H12X          -23.2239118969       -0.4716637896       -4.8528194430  MEMB      61              0.0000000000
      9033       113  POPC      H12Y          -23.4769843311        1.2282645894       -4.3768211455  MEMB      61              0.0000000000
      9034       113  POPC      C313          -23.4930465089       -0.1621206291       -2.7355830407  MEMB      61              0.0000000000
      9035       113  POPC      H13X          -22.9140834752        0.3649681671       -1.9429719573  MEMB      61              0.0000000000
      9036       113  POPC      H13Y          -23.3197818132       -1.2540173653       -2.6179172715  MEMB      61              0.0000000000
      9037       113  POPC      C314          -24.9649502594        0.1905203711       -2.5444836556  MEMB      61              0.0000000000
      9038       113  POPC      H14X          -25.5782004055       -0.2645334798       -3.3515513996  MEMB      61              0.0000000000
      9039       113  POPC      H14Y          -25.0653295778        1.2967177788       -2.6247951948  MEMB      61              0.0000000000
      9040       113  POPC      C315          -25.4958483201       -0.2428385456       -1.1799002569  MEMB      61              0.0000000000
      9041       113  POPC      H15X          -26.4605043778        0.2597505122       -1.0378834697  MEMB      61              0.0000000000
      9042       113  POPC      H15Y          -24.8362340552        0.1362215925       -0.3702608420  MEMB      61              0.0000000000
      9043       113  POPC      C316          -25.7103806468       -1.7479098154       -1.0444449840  MEMB      61              0.0000000000
      9044       113  POPC      H16X          -24.7443398606       -2.2817254739       -1.1471545687  MEMB      61              0.0000000000
      9045       113  POPC      H16Y          -26.4067158497       -2.1139708286       -1.8298028609  MEMB      61              0.0000000000
      9046       113  POPC      H16Z          -26.1410055962       -2.0028584148       -0.0550941043  MEMB      61              0.0000000000
      9047       114  POPC      N             -18.1970331167       10.0068026540      -18.7806514789  MEMB      62              0.0000000000
      9048       114  POPC      C12           -19.5431161698        9.2945752395      -18.7604465251  MEMB      62              0.0000000000
      9049       114  POPC      H12A          -19.6047709355        8.6698730043      -17.8864095296  MEMB      62              0.0000000000
      9050       114  POPC      H12B          -19.5777662713        8.6459133397      -19.6308680651  MEMB      62              0.0000000000
      9051       114  POPC      C13           -18.0066400450       10.5282283543      -20.1703729047  MEMB      62              0.0000000000
      9052       114  POPC      H13A          -17.9839834409        9.7000142418      -20.8715078215  MEMB      62              0.0000000000
      9053       114  POPC      H13B          -18.8892232714       11.1089733639      -20.4476040681  MEMB      62              0.0000000000
      9054       114  POPC      H13C          -17.1206945217       11.1352839304      -20.2613771127  MEMB      62              0.0000000000
      9055       114  POPC      C14           -18.2276543731       11.1113683392      -17.7802755740  MEMB      62              0.0000000000
      9056       114  POPC      H14A          -19.1477627440       11.6917895807      -17.9061184867  MEMB      62              0.0000000000
      9057       114  POPC      H14B          -18.2386462348       10.7095641780      -16.7776319665  MEMB      62              0.0000000000
      9058       114  POPC      H14C          -17.3819060936       11.7650550077      -17.9008942775  MEMB      62              0.0000000000
      9059       114  POPC      C15           -17.0615539516        9.0831184791      -18.4629121917  MEMB      62              0.0000000000
      9060       114  POPC      H15A          -17.0033536290        8.2571557732      -19.1628026415  MEMB      62              0.0000000000
      9061       114  POPC      H15B          -17.1519834201        8.6445860713      -17.4756261550  MEMB      62              0.0000000000
      9062       114  POPC      H15C          -16.1118361694        9.6069100795      -18.4825846307  MEMB      62              0.0000000000
      9063       114  POPC      C11           -20.8307305423       10.1639579264      -18.8147675463  MEMB      62              0.0000000000
      9064       114  POPC      H11A          -20.8964342862       10.7529053952      -17.8702718903  MEMB      62              0.0000000000
      9065       114  POPC      H11B          -21.7174174913        9.4861979954      -18.8221003004  MEMB      62              0.0000000000
      9066       114  POPC      P             -21.1194885299       12.5308705917      -19.9228379659  MEMB      62              0.0000000000
      9067       114  POPC      O13           -22.5436220610       12.8167587451      -19.7103483863  MEMB      62              0.0000000000
      9068       114  POPC      O14           -20.4893235716       13.1943571028      -21.0912641070  MEMB      62              0.0000000000
      9069       114  POPC      O12           -20.8579304394       10.9748494898      -19.9903480415  MEMB      62              0.0000000000
      9070       114  POPC      O11           -20.3321888644       13.0117043236      -18.6303197068  MEMB      62              0.0000000000
      9071       114  POPC      C1            -20.4747613633       14.3715936825      -18.1711952354  MEMB      62              0.0000000000
      9072       114  POPC      HA            -21.0689191583       14.9890060991      -18.8785627705  MEMB      62              0.0000000000
      9073       114  POPC      HB            -19.4691534729       14.8417606157      -18.1184447418  MEMB      62              0.0000000000
      9074       114  POPC      C2            -21.1445551063       14.5476833297      -16.7613060988  MEMB      62              0.0000000000
      9075       114  POPC      HS            -21.4742441513       15.6074466111      -16.6744538202  MEMB      62              0.0000000000
      9076       114  POPC      O21           -20.1536138382       14.2657348694      -15.7565722801  MEMB      62              0.0000000000
      9077       114  POPC      C21           -20.5227475585       14.3163904834      -14.4819005610  MEMB      62              0.0000000000
      9078       114  POPC      O22           -21.5948288076       14.6973390957      -14.0547674171  MEMB      62              0.0000000000
      9079       114  POPC      C22           -19.3542195293       13.8369644303      -13.6330340494  MEMB      62              0.0000000000
      9080       114  POPC      H2R           -19.0626355627       14.6966713347      -12.9969640067  MEMB      62              0.0000000000
      9081       114  POPC      H2S           -18.5056824506       13.5831414361      -14.2976586266  MEMB      62              0.0000000000
      9082       114  POPC      C3            -22.4076129153       13.6652104124      -16.5763750064  MEMB      62              0.0000000000
      9083       114  POPC      HX            -22.9699532561       13.7096543214      -17.5391312150  MEMB      62              0.0000000000
      9084       114  POPC      HY            -23.0697085013       14.1333817277      -15.8117393179  MEMB      62              0.0000000000
      9085       114  POPC      O31           -22.0697559184       12.3193818834      -16.1615781235  MEMB      62              0.0000000000
      9086       114  POPC      C31           -23.1333592660       11.5438754629      -16.2922810231  MEMB      62              0.0000000000
      9087       114  POPC      O32           -24.1617284593       11.8562321998      -16.8670420860  MEMB      62              0.0000000000
      9088       114  POPC      C32           -22.9403501044       10.2417497417      -15.5228983606  MEMB      62              0.0000000000
      9089       114  POPC      H2X           -22.0410136686        9.7196361863      -15.9002071404  MEMB      62              0.0000000000
      9090       114  POPC      H2Y           -23.8274408848        9.6132756315      -15.7440504824  MEMB      62              0.0000000000
      9091       114  POPC      C23           -19.6800591589       12.5899634129      -12.7850827832  MEMB      62              0.0000000000
      9092       114  POPC      H3R           -19.8671099423       11.7329917401      -13.4738752242  MEMB      62              0.0000000000
      9093       114  POPC      H3S           -20.6011397099       12.7491886807      -12.1809968813  MEMB      62              0.0000000000
      9094       114  POPC      C24           -18.5127745530       12.2284799084      -11.8558595283  MEMB      62              0.0000000000
      9095       114  POPC      H4R           -17.5771086957       12.2173849464      -12.4608870287  MEMB      62              0.0000000000
      9096       114  POPC      H4S           -18.6604597296       11.2002500288      -11.4572491105  MEMB      62              0.0000000000
      9097       114  POPC      C25           -18.3350293517       13.2056537591      -10.6792460147  MEMB      62              0.0000000000
      9098       114  POPC      H5R           -18.4975627720       14.2601924862      -10.9848093183  MEMB      62              0.0000000000
      9099       114  POPC      H5S           -17.2752873037       13.1376292940      -10.3511035752  MEMB      62              0.0000000000
      9100       114  POPC      C26           -19.2324831823       12.8619417847       -9.4830188081  MEMB      62              0.0000000000
      9101       114  POPC      H6R           -19.3747783996       11.7575096444       -9.4876406787  MEMB      62              0.0000000000
      9102       114  POPC      H6S           -20.2406970287       13.3123334392       -9.5924018380  MEMB      62              0.0000000000
      9103       114  POPC      C27           -18.5942436671       13.2001213116       -8.1241004842  MEMB      62              0.0000000000
      9104       114  POPC      H7R           -17.5345068714       12.8829525622       -8.1487382363  MEMB      62              0.0000000000
      9105       114  POPC      H7S           -19.0823619416       12.5797935686       -7.3428907268  MEMB      62              0.0000000000
      9106       114  POPC      C28           -18.6559587800       14.6725830608       -7.6941068917  MEMB      62              0.0000000000
      9107       114  POPC      H8R           -18.2650752836       15.3242055245       -8.5059592021  MEMB      62              0.0000000000
      9108       114  POPC      H8S           -17.9777387150       14.7969233963       -6.8177040952  MEMB      62              0.0000000000
      9109       114  POPC      C29           -20.0689835881       15.0378263555       -7.3317461474  MEMB      62              0.0000000000
      9110       114  POPC      H91           -20.6802503732       15.4260996642       -8.1627308152  MEMB      62              0.0000000000
      9111       114  POPC      C210          -20.6345732609       14.8773599617       -6.1219437900  MEMB      62              0.0000000000
      9112       114  POPC      H101          -21.6953568062       15.1263633969       -6.0249398607  MEMB      62              0.0000000000
      9113       114  POPC      C211          -20.0113058848       14.3081721963       -4.8688365003  MEMB      62              0.0000000000
      9114       114  POPC      H11R          -19.5135231142       15.1179324380       -4.2896165013  MEMB      62              0.0000000000
      9115       114  POPC      H11S          -19.2147462484       13.5815304162       -5.1301514763  MEMB      62              0.0000000000
      9116       114  POPC      C212          -21.0181572257       13.6168091331       -3.9087938309  MEMB      62              0.0000000000
      9117       114  POPC      H12R          -21.5526402527       14.3973993861       -3.3275203121  MEMB      62              0.0000000000
      9118       114  POPC      H12S          -20.4406215944       13.0044066177       -3.1792432417  MEMB      62              0.0000000000
      9119       114  POPC      C213          -22.0646965431       12.7159428570       -4.5918478586  MEMB      62              0.0000000000
      9120       114  POPC      H13R          -21.5293268162       11.9490858767       -5.1870664992  MEMB      62              0.0000000000
      9121       114  POPC      H13S          -22.6726097500       13.3185138604       -5.3014440865  MEMB      62              0.0000000000
      9122       114  POPC      C214          -23.0318012807       12.0045228877       -3.6267128952  MEMB      62              0.0000000000
      9123       114  POPC      H14R          -24.0710376031       12.3046849478       -3.8906645226  MEMB      62              0.0000000000
      9124       114  POPC      H14S          -22.8458652195       12.3360945520       -2.5815741577  MEMB      62              0.0000000000
      9125       114  POPC      C215          -22.9354269875       10.4710787291       -3.7045533742  MEMB      62              0.0000000000
      9126       114  POPC      H15R          -22.9959901350       10.1451355104       -4.7658857612  MEMB      62              0.0000000000
      9127       114  POPC      H15S          -23.7923812853       10.0066657867       -3.1729130002  MEMB      62              0.0000000000
      9128       114  POPC      C216          -21.6660138754        9.9275836333       -3.0481723992  MEMB      62              0.0000000000
      9129       114  POPC      H16R          -21.6354047263       10.2900141378       -1.9970602908  MEMB      62              0.0000000000
      9130       114  POPC      H16S          -20.7792681773       10.3455361270       -3.5688947086  MEMB      62              0.0000000000
      9131       114  POPC      C217          -21.6016283364        8.3971813612       -3.0541053075  MEMB      62              0.0000000000
      9132       114  POPC      H17R          -21.3274219760        8.0551184220       -4.0787624940  MEMB      62              0.0000000000
      9133       114  POPC      H17S          -22.6087143912        7.9814950289       -2.8195662531  MEMB      62              0.0000000000
      9134       114  POPC      C218          -20.5975420675        7.8565628823       -2.0404597388  MEMB      62              0.0000000000
      9135       114  POPC      H18R          -21.0097064563        7.9135453863       -1.0107364112  MEMB      62              0.0000000000
      9136       114  POPC      H18S          -19.6638568750        8.4564507724       -2.0682774534  MEMB      62              0.0000000000
      9137       114  POPC      H18T          -20.3397646804        6.7983411310       -2.2528973877  MEMB      62              0.0000000000
      9138       114  POPC      C33           -22.8609864262       10.4447480946      -13.9904897039  MEMB      62              0.0000000000
      9139       114  POPC      H3X           -21.8366551667       10.7442361426      -13.6816894695  MEMB      62              0.0000000000
      9140       114  POPC      H3Y           -23.0736841421        9.4539398264      -13.5189319395  MEMB      62              0.0000000000
      9141       114  POPC      C34           -23.8718364601       11.4669889565      -13.4466666056  MEMB      62              0.0000000000
      9142       114  POPC      H4X           -24.7414019929       11.5365523767      -14.1362300971  MEMB      62              0.0000000000
      9143       114  POPC      H4Y           -23.4086941623       12.4790057727      -13.3998751322  MEMB      62              0.0000000000
      9144       114  POPC      C35           -24.4252946881       11.0688410843      -12.0748179283  MEMB      62              0.0000000000
      9145       114  POPC      H5X           -24.8028015319       10.0226567787      -12.1111931067  MEMB      62              0.0000000000
      9146       114  POPC      H5Y           -25.2977130227       11.7120552081      -11.8618913359  MEMB      62              0.0000000000
      9147       114  POPC      C36           -23.4083625315       11.2164709703      -10.9415349374  MEMB      62              0.0000000000
      9148       114  POPC      H6X           -23.0469463840       12.2698264586      -10.9070331064  MEMB      62              0.0000000000
      9149       114  POPC      H6Y           -22.5345154706       10.5629085603      -11.1559781117  MEMB      62              0.0000000000
      9150       114  POPC      C37           -24.0079944132       10.8372586133       -9.5822061528  MEMB      62              0.0000000000
      9151       114  POPC      H7X           -24.3739650381        9.7872314118       -9.6296569736  MEMB      62              0.0000000000
      9152       114  POPC      H7Y           -24.8922383919       11.4863199714       -9.3901683678  MEMB      62              0.0000000000
      9153       114  POPC      C38           -23.0156212075       10.9820677744       -8.4192470502  MEMB      62              0.0000000000
      9154       114  POPC      H8X           -23.5266368482       10.6926305955       -7.4733656762  MEMB      62              0.0000000000
      9155       114  POPC      H8Y           -22.7225152428       12.0518321099       -8.3197739947  MEMB      62              0.0000000000
      9156       114  POPC      C39           -21.7293690717       10.1458879098       -8.5576362456  MEMB      62              0.0000000000
      9157       114  POPC      H9X           -21.1486032676       10.5006030672       -9.4351587670  MEMB      62              0.0000000000
      9158       114  POPC      H9Y           -21.9855414527        9.0800791902       -8.7384839811  MEMB      62              0.0000000000
      9159       114  POPC      C310          -20.8761718518       10.2709051092       -7.2861391249  MEMB      62              0.0000000000
      9160       114  POPC      H10X          -21.4517023480        9.8470918425       -6.4332317992  MEMB      62              0.0000000000
      9161       114  POPC      H10Y          -20.7363393877       11.3535949037       -7.0830107922  MEMB      62              0.0000000000
      9162       114  POPC      C311          -19.5027708657        9.5854685846       -7.3312275563  MEMB      62              0.0000000000
      9163       114  POPC      H11X          -18.8313115005       10.1211023722       -8.0356480870  MEMB      62              0.0000000000
      9164       114  POPC      H11Y          -19.6354167944        8.5476330071       -7.7122649438  MEMB      62              0.0000000000
      9165       114  POPC      C312          -18.8354501954        9.5068886190       -5.9439425916  MEMB      62              0.0000000000
      9166       114  POPC      H12X          -17.8983041131        8.9132235397       -6.0301661030  MEMB      62              0.0000000000
      9167       114  POPC      H12Y          -19.5260737045        8.9622786435       -5.2631791998  MEMB      62              0.0000000000
      9168       114  POPC      C313          -18.4801467697       10.8581889340       -5.2974379145  MEMB      62              0.0000000000
      9169       114  POPC      H13X          -19.3896559486       11.4892881463       -5.2483185976  MEMB      62              0.0000000000
      9170       114  POPC      H13Y          -17.7332069455       11.3703955326       -5.9424396667  MEMB      62              0.0000000000
      9171       114  POPC      C314          -17.9011828019       10.7074604862       -3.8803318867  MEMB      62              0.0000000000
      9172       114  POPC      H14X          -17.1342638973        9.9064689928       -3.9102569735  MEMB      62              0.0000000000
      9173       114  POPC      H14Y          -18.6921970215       10.3713720004       -3.1766593347  MEMB      62              0.0000000000
      9174       114  POPC      C315          -17.2214327495       11.9633165243       -3.3205245522  MEMB      62              0.0000000000
      9175       114  POPC      H15X          -17.9881651338       12.7461858409       -3.1279541310  MEMB      62              0.0000000000
      9176       114  POPC      H15Y          -16.5200940463       12.3665817655       -4.0866440075  MEMB      62              0.0000000000
      9177       114  POPC      C316          -16.4418267946       11.6676994940       -2.0349701311  MEMB      62              0.0000000000
      9178       114  POPC      H16X          -15.9790411749       12.5901060723       -1.6254388720  MEMB      62              0.0000000000
      9179       114  POPC      H16Y          -15.6314215125       10.9325281518       -2.2378898816  MEMB      62              0.0000000000
      9180       114  POPC      H16Z          -17.1155958714       11.2333567631       -1.2665323325  MEMB      62              0.0000000000
      9181       115  POPC      N              -5.0814874366       19.8097794197      -20.4614509938  MEMB      63              0.0000000000
      9182       115  POPC      C12            -5.5534392543       19.7410997797      -19.0132956920  MEMB      63              0.0000000000
      9183       115  POPC      H12A           -6.2935857546       20.5213277574      -18.8411029201  MEMB      63              0.0000000000
      9184       115  POPC      H12B           -4.7259201284       19.9502144963      -18.3544488930  MEMB      63              0.0000000000
      9185       115  POPC      C13            -6.2796781361       19.6512853517      -21.3453063352  MEMB      63              0.0000000000
      9186       115  POPC      H13A           -6.0087781131       19.6439097810      -22.3828308203  MEMB      63              0.0000000000
      9187       115  POPC      H13B           -6.8174738803       18.7375663199      -21.0935107814  MEMB      63              0.0000000000
      9188       115  POPC      H13C           -6.9984632333       20.4512663301      -21.1550121497  MEMB      63              0.0000000000
      9189       115  POPC      C14            -4.4409285189       21.1251761306      -20.8039273175  MEMB      63              0.0000000000
      9190       115  POPC      H14A           -4.9952669092       21.9940597954      -20.4589341722  MEMB      63              0.0000000000
      9191       115  POPC      H14B           -3.4366268024       21.1928240636      -20.4078538678  MEMB      63              0.0000000000
      9192       115  POPC      H14C           -4.3221251977       21.2619209176      -21.8754331470  MEMB      63              0.0000000000
      9193       115  POPC      C15            -4.1350061657       18.6765836692      -20.7383266574  MEMB      63              0.0000000000
      9194       115  POPC      H15A           -3.2664134655       18.6920233621      -20.0947759695  MEMB      63              0.0000000000
      9195       115  POPC      H15B           -3.7863867176       18.6613980990      -21.7665535872  MEMB      63              0.0000000000
      9196       115  POPC      H15C           -4.6443367975       17.7362240316      -20.5323243193  MEMB      63              0.0000000000
      9197       115  POPC      C11            -6.2118312932       18.4064483386      -18.5546805286  MEMB      63              0.0000000000
      9198       115  POPC      H11A           -6.3376068494       18.4127939778      -17.4441337642  MEMB      63              0.0000000000
      9199       115  POPC      H11B           -5.5233443794       17.5571038458      -18.7622250921  MEMB      63              0.0000000000
      9200       115  POPC      P              -8.7569446344       18.9822618390      -18.8109167038  MEMB      63              0.0000000000
      9201       115  POPC      O13            -9.8389468737       18.0120517403      -18.5289998427  MEMB      63              0.0000000000
      9202       115  POPC      O14            -8.9888909402       19.9500168320      -19.9078330000  MEMB      63              0.0000000000
      9203       115  POPC      O12            -7.4558909124       18.1658701716      -19.2164013296  MEMB      63              0.0000000000
      9204       115  POPC      O11            -8.3002680877       19.7299468586      -17.4849659715  MEMB      63              0.0000000000
      9205       115  POPC      C1             -9.2245675648       20.1182954889      -16.4623217775  MEMB      63              0.0000000000
      9206       115  POPC      HA            -10.2884768156       20.0598671269      -16.7980172939  MEMB      63              0.0000000000
      9207       115  POPC      HB             -9.0369135285       21.1851322530      -16.2080670937  MEMB      63              0.0000000000
      9208       115  POPC      C2             -9.1157529769       19.2899285328      -15.1348280990  MEMB      63              0.0000000000
      9209       115  POPC      HS             -9.8593194231       19.7237783591      -14.4207274314  MEMB      63              0.0000000000
      9210       115  POPC      O21            -7.7961524505       19.2812533800      -14.5458509065  MEMB      63              0.0000000000
      9211       115  POPC      C21            -7.5039577936       20.3785894125      -13.8814843514  MEMB      63              0.0000000000
      9212       115  POPC      O22            -8.1712484298       21.3951749506      -13.8632784176  MEMB      63              0.0000000000
      9213       115  POPC      C22            -6.2008074634       20.2055255958      -13.1001099260  MEMB      63              0.0000000000
      9214       115  POPC      H2R            -6.4274917564       20.4586869488      -12.0413043397  MEMB      63              0.0000000000
      9215       115  POPC      H2S            -5.4655943152       20.9400331414      -13.4835118292  MEMB      63              0.0000000000
      9216       115  POPC      C3             -9.5196823160       17.8121119778      -15.3033916727  MEMB      63              0.0000000000
      9217       115  POPC      HX             -8.8790431420       17.4241219862      -16.1329977186  MEMB      63              0.0000000000
      9218       115  POPC      HY            -10.5813008907       17.7438140553      -15.6200194522  MEMB      63              0.0000000000
      9219       115  POPC      O31            -9.3084024993       17.1320294580      -14.0400758118  MEMB      63              0.0000000000
      9220       115  POPC      C31            -8.7046918712       15.9566757820      -14.1565434642  MEMB      63              0.0000000000
      9221       115  POPC      O32            -8.6494913260       15.2902378613      -15.1764456883  MEMB      63              0.0000000000
      9222       115  POPC      C32            -8.0716870126       15.4893408389      -12.8439554200  MEMB      63              0.0000000000
      9223       115  POPC      H2X            -6.9717559725       15.5204403801      -12.9860345847  MEMB      63              0.0000000000
      9224       115  POPC      H2Y            -8.3587168719       14.4244165070      -12.7175223646  MEMB      63              0.0000000000
      9225       115  POPC      C23            -5.6138984512       18.7824118866      -13.1770806589  MEMB      63              0.0000000000
      9226       115  POPC      H3R            -5.3411362085       18.5172118687      -14.2235296118  MEMB      63              0.0000000000
      9227       115  POPC      H3S            -6.3937177448       18.0599274314      -12.8408036039  MEMB      63              0.0000000000
      9228       115  POPC      C24            -4.3888931894       18.6232721575      -12.2801239075  MEMB      63              0.0000000000
      9229       115  POPC      H4R            -4.5080547252       19.2641810605      -11.3759278940  MEMB      63              0.0000000000
      9230       115  POPC      H4S            -3.4833809292       18.9686979369      -12.8244444644  MEMB      63              0.0000000000
      9231       115  POPC      C25            -4.2189760489       17.1803687089      -11.8086318856  MEMB      63              0.0000000000
      9232       115  POPC      H5R            -4.4767450930       16.4580146779      -12.6141555840  MEMB      63              0.0000000000
      9233       115  POPC      H5S            -4.9447854505       17.0164517033      -10.9812770612  MEMB      63              0.0000000000
      9234       115  POPC      C26            -2.8115778645       16.8823187566      -11.2871591890  MEMB      63              0.0000000000
      9235       115  POPC      H6R            -2.4433634477       17.7643396522      -10.7124278050  MEMB      63              0.0000000000
      9236       115  POPC      H6S            -2.1114258875       16.7356523014      -12.1320518076  MEMB      63              0.0000000000
      9237       115  POPC      C27            -2.8303199291       15.6659025807      -10.3560267316  MEMB      63              0.0000000000
      9238       115  POPC      H7R            -1.8830486875       15.0885871135      -10.4412807633  MEMB      63              0.0000000000
      9239       115  POPC      H7S            -3.6734572100       14.9962227537      -10.6466812351  MEMB      63              0.0000000000
      9240       115  POPC      C28            -3.0021190707       16.1775065106       -8.9220973520  MEMB      63              0.0000000000
      9241       115  POPC      H8R            -3.7176319457       17.0336733921       -8.9815479496  MEMB      63              0.0000000000
      9242       115  POPC      H8S            -2.0286092371       16.6052680778       -8.6017147872  MEMB      63              0.0000000000
      9243       115  POPC      C29            -3.4955861080       15.2152903641       -7.8834273047  MEMB      63              0.0000000000
      9244       115  POPC      H91            -3.5276404212       14.1456475215       -8.1454137143  MEMB      63              0.0000000000
      9245       115  POPC      C210           -3.9346579153       15.6519179812       -6.6923306415  MEMB      63              0.0000000000
      9246       115  POPC      H101           -4.3523831123       14.9330559519       -5.9734287290  MEMB      63              0.0000000000
      9247       115  POPC      C211           -3.9705173486       17.1121762342       -6.2948918083  MEMB      63              0.0000000000
      9248       115  POPC      H11R           -4.9715156264       17.5123625126       -6.5442160814  MEMB      63              0.0000000000
      9249       115  POPC      H11S           -3.2507486917       17.7280149703       -6.8794095917  MEMB      63              0.0000000000
      9250       115  POPC      C212           -3.6985589425       17.4174079439       -4.8106307525  MEMB      63              0.0000000000
      9251       115  POPC      H12R           -3.8240675724       18.5123577156       -4.6404037735  MEMB      63              0.0000000000
      9252       115  POPC      H12S           -2.6517523960       17.1549233426       -4.5551953461  MEMB      63              0.0000000000
      9253       115  POPC      C213           -4.6114023539       16.6562892737       -3.8570321912  MEMB      63              0.0000000000
      9254       115  POPC      H13R           -4.3433906403       16.9072556875       -2.8066611793  MEMB      63              0.0000000000
      9255       115  POPC      H13S           -4.4261067777       15.5684641674       -3.9819817317  MEMB      63              0.0000000000
      9256       115  POPC      C214           -6.1005274197       16.9175360287       -4.0774592769  MEMB      63              0.0000000000
      9257       115  POPC      H14R           -6.3760158937       16.9605326942       -5.1523395105  MEMB      63              0.0000000000
      9258       115  POPC      H14S           -6.3575504945       17.9041462501       -3.6324658208  MEMB      63              0.0000000000
      9259       115  POPC      C215           -6.9090746635       15.7945880753       -3.4415520065  MEMB      63              0.0000000000
      9260       115  POPC      H15R           -6.4433658134       15.5718511367       -2.4582043382  MEMB      63              0.0000000000
      9261       115  POPC      H15S           -6.8196600216       14.8652908577       -4.0437685580  MEMB      63              0.0000000000
      9262       115  POPC      C216           -8.3711165054       16.1712143886       -3.2272491069  MEMB      63              0.0000000000
      9263       115  POPC      H16R           -8.9283139602       16.1379131635       -4.1893134845  MEMB      63              0.0000000000
      9264       115  POPC      H16S           -8.4157022120       17.2178338972       -2.8620302535  MEMB      63              0.0000000000
      9265       115  POPC      C217           -9.0179941451       15.2624727424       -2.1832030375  MEMB      63              0.0000000000
      9266       115  POPC      H17R           -9.8985653401       15.7769488697       -1.7446908104  MEMB      63              0.0000000000
      9267       115  POPC      H17S           -8.3102036786       15.0825423784       -1.3456381710  MEMB      63              0.0000000000
      9268       115  POPC      C218           -9.4279415689       13.9288989853       -2.7872949955  MEMB      63              0.0000000000
      9269       115  POPC      H18R          -10.1653193153       14.0931983257       -3.6004936848  MEMB      63              0.0000000000
      9270       115  POPC      H18S           -9.8701024626       13.2531931525       -2.0256925661  MEMB      63              0.0000000000
      9271       115  POPC      H18T           -8.5453714891       13.4345695260       -3.2419520083  MEMB      63              0.0000000000
      9272       115  POPC      C33            -8.4546786409       16.2490602775      -11.5521710603  MEMB      63              0.0000000000
      9273       115  POPC      H3X            -9.5474986675       16.1498538278      -11.3659562333  MEMB      63              0.0000000000
      9274       115  POPC      H3Y            -8.2171037268       17.3327807898      -11.6466215062  MEMB      63              0.0000000000
      9275       115  POPC      C34            -7.6820945725       15.6566420692      -10.3633835805  MEMB      63              0.0000000000
      9276       115  POPC      H4X            -6.6033478438       15.8880496087      -10.4805531714  MEMB      63              0.0000000000
      9277       115  POPC      H4Y            -7.7642969235       14.5467788839      -10.4037281495  MEMB      63              0.0000000000
      9278       115  POPC      C35            -8.1628196074       16.1253055830       -8.9830717593  MEMB      63              0.0000000000
      9279       115  POPC      H5X            -7.4861369769       15.6841173815       -8.2141222129  MEMB      63              0.0000000000
      9280       115  POPC      H5Y            -9.1840475112       15.7237146228       -8.7995305733  MEMB      63              0.0000000000
      9281       115  POPC      C36            -8.1830303727       17.6483092615       -8.7792452499  MEMB      63              0.0000000000
      9282       115  POPC      H6X            -8.5508370799       17.8349845122       -7.7427256154  MEMB      63              0.0000000000
      9283       115  POPC      H6Y            -8.8961960205       18.1327580795       -9.4801576980  MEMB      63              0.0000000000
      9284       115  POPC      C37            -6.7999693084       18.3041159568       -8.9110048226  MEMB      63              0.0000000000
      9285       115  POPC      H7X            -6.4521982130       18.2721256782       -9.9646787822  MEMB      63              0.0000000000
      9286       115  POPC      H7Y            -6.0815748187       17.7064291602       -8.3105560753  MEMB      63              0.0000000000
      9287       115  POPC      C38            -6.7926638798       19.7546268203       -8.4131958258  MEMB      63              0.0000000000
      9288       115  POPC      H8X            -7.6672122480       19.8866119173       -7.7361050494  MEMB      63              0.0000000000
      9289       115  POPC      H8Y            -6.9249333335       20.4471928668       -9.2729060822  MEMB      63              0.0000000000
      9290       115  POPC      C39            -5.5283809474       20.1215569207       -7.6203112661  MEMB      63              0.0000000000
      9291       115  POPC      H9X            -4.6257573729       19.8455793953       -8.2090063525  MEMB      63              0.0000000000
      9292       115  POPC      H9Y            -5.5150256580       19.5247781503       -6.6827858673  MEMB      63              0.0000000000
      9293       115  POPC      C310           -5.4595235941       21.6071141504       -7.2440708044  MEMB      63              0.0000000000
      9294       115  POPC      H10X           -5.3087334479       22.1865824217       -8.1809848716  MEMB      63              0.0000000000
      9295       115  POPC      H10Y           -4.5742293200       21.7858991296       -6.5934945214  MEMB      63              0.0000000000
      9296       115  POPC      C311           -6.7158774767       22.1282157474       -6.5262382878  MEMB      63              0.0000000000
      9297       115  POPC      H11X           -7.6056057783       22.0042969126       -7.1816600527  MEMB      63              0.0000000000
      9298       115  POPC      H11Y           -6.6075432473       23.2190655085       -6.3465031537  MEMB      63              0.0000000000
      9299       115  POPC      C312           -6.9805357271       21.4549235419       -5.1725893643  MEMB      63              0.0000000000
      9300       115  POPC      H12X           -6.1241573396       21.6636432998       -4.4922618901  MEMB      63              0.0000000000
      9301       115  POPC      H12Y           -7.0569210823       20.3533070910       -5.3004329878  MEMB      63              0.0000000000
      9302       115  POPC      C313           -8.2760497218       21.9788518364       -4.5471871388  MEMB      63              0.0000000000
      9303       115  POPC      H13X           -9.1285263572       21.6952874500       -5.2031979046  MEMB      63              0.0000000000
      9304       115  POPC      H13Y           -8.2210216965       23.0925150077       -4.5214496521  MEMB      63              0.0000000000
      9305       115  POPC      C314           -8.5435644998       21.4780590253       -3.1247283011  MEMB      63              0.0000000000
      9306       115  POPC      H14X           -9.3905603678       22.0672668284       -2.7010334874  MEMB      63              0.0000000000
      9307       115  POPC      H14Y           -7.6486455259       21.6687859458       -2.4903206860  MEMB      63              0.0000000000
      9308       115  POPC      C315           -8.9061904284       19.9944442703       -3.0273240696  MEMB      63              0.0000000000
      9309       115  POPC      H15X           -8.0350223930       19.3882794017       -3.3624522953  MEMB      63              0.0000000000
      9310       115  POPC      H15Y           -9.7536725711       19.7713715837       -3.7139071071  MEMB      63              0.0000000000
      9311       115  POPC      C316           -9.2897559634       19.6150827736       -1.5949008844  MEMB      63              0.0000000000
      9312       115  POPC      H16X          -10.2503815471       20.0924247190       -1.3139956536  MEMB      63              0.0000000000
      9313       115  POPC      H16Y           -8.5085348295       19.9652279237       -0.8851392937  MEMB      63              0.0000000000
      9314       115  POPC      H16Z           -9.4031054913       18.5189193572       -1.4751192380  MEMB      63              0.0000000000
      9315       116  POPC      N               2.2689340815       18.4461843033      -17.7638930816  MEMB      64              0.0000000000
      9316       116  POPC      C12             1.2521538551       19.5164462331      -18.1711222413  MEMB      64              0.0000000000
      9317       116  POPC      H12A            1.7438758508       20.4974865497      -18.2206316161  MEMB      64              0.0000000000
      9318       116  POPC      H12B            0.5075789649       19.6127457735      -17.3946746218  MEMB      64              0.0000000000
      9319       116  POPC      C13             2.8158739110       18.7296773896      -16.4026630783  MEMB      64              0.0000000000
      9320       116  POPC      H13A            3.7431796084       18.2113083472      -16.2034204913  MEMB      64              0.0000000000
      9321       116  POPC      H13B            3.0189501641       19.7939143906      -16.2820102656  MEMB      64              0.0000000000
      9322       116  POPC      H13C            2.1019169469       18.4734160894      -15.6331417387  MEMB      64              0.0000000000
      9323       116  POPC      C14             1.5987333613       17.1060821764      -17.7804620130  MEMB      64              0.0000000000
      9324       116  POPC      H14A            2.2906556510       16.3063489049      -17.5718407805  MEMB      64              0.0000000000
      9325       116  POPC      H14B            0.7614391099       17.0221885580      -17.0900409004  MEMB      64              0.0000000000
      9326       116  POPC      H14C            1.1834921574       16.9479898509      -18.7778913926  MEMB      64              0.0000000000
      9327       116  POPC      C15             3.3962071780       18.4505981416      -18.7603010069  MEMB      64              0.0000000000
      9328       116  POPC      H15A            4.1025935532       17.6539610952      -18.6064268720  MEMB      64              0.0000000000
      9329       116  POPC      H15B            3.9119562654       19.4071210973      -18.7903124697  MEMB      64              0.0000000000
      9330       116  POPC      H15C            2.9757469633       18.3331792613      -19.7616870773  MEMB      64              0.0000000000
      9331       116  POPC      C11             0.5144071618       19.3339384039      -19.5280222576  MEMB      64              0.0000000000
      9332       116  POPC      H11A           -0.3003605800       20.0956302429      -19.5973269367  MEMB      64              0.0000000000
      9333       116  POPC      H11B           -0.0093714914       18.3526552859      -19.5573282399  MEMB      64              0.0000000000
      9334       116  POPC      P               1.7900352661       20.8447528862      -21.2158572872  MEMB      64              0.0000000000
      9335       116  POPC      O13             0.5571665217       21.5060000882      -21.7116128921  MEMB      64              0.0000000000
      9336       116  POPC      O14             2.9419625594       20.8222498884      -22.1576588334  MEMB      64              0.0000000000
      9337       116  POPC      O12             1.4141475280       19.4149689750      -20.6394914160  MEMB      64              0.0000000000
      9338       116  POPC      O11             2.2604955959       21.5563130765      -19.8565895752  MEMB      64              0.0000000000
      9339       116  POPC      C1              2.4538565476       22.9724965808      -19.9228748821  MEMB      64              0.0000000000
      9340       116  POPC      HA              1.5702439571       23.4965618862      -20.3658048660  MEMB      64              0.0000000000
      9341       116  POPC      HB              3.3306356679       23.1751712343      -20.5864295254  MEMB      64              0.0000000000
      9342       116  POPC      C2              2.7542617195       23.6774229265      -18.5554686712  MEMB      64              0.0000000000
      9343       116  POPC      HS              3.0981882234       24.7056179411      -18.8039277783  MEMB      64              0.0000000000
      9344       116  POPC      O21             3.8363942858       22.9884566491      -17.8631587337  MEMB      64              0.0000000000
      9345       116  POPC      C21             3.7224484510       22.1184114162      -16.8936808905  MEMB      64              0.0000000000
      9346       116  POPC      O22             2.7174612220       21.6425489460      -16.4066134597  MEMB      64              0.0000000000
      9347       116  POPC      C22             5.1175172289       21.6507102701      -16.4256929763  MEMB      64              0.0000000000
      9348       116  POPC      H2R             5.8825155284       22.3805269804      -16.7226822400  MEMB      64              0.0000000000
      9349       116  POPC      H2S             5.3276474047       20.6991117910      -16.9502339755  MEMB      64              0.0000000000
      9350       116  POPC      C3              1.4848903718       23.8496605810      -17.6080057625  MEMB      64              0.0000000000
      9351       116  POPC      HX              0.8805714438       24.6765805350      -18.0473875864  MEMB      64              0.0000000000
      9352       116  POPC      HY              1.9297073314       24.2319317291      -16.6514181179  MEMB      64              0.0000000000
      9353       116  POPC      O31             0.6098013013       22.7073926320      -17.3525580670  MEMB      64              0.0000000000
      9354       116  POPC      C31            -0.1546429378       22.9599843799      -16.2693992217  MEMB      64              0.0000000000
      9355       116  POPC      O32            -0.3676212914       24.0810775980      -15.8380855515  MEMB      64              0.0000000000
      9356       116  POPC      C32            -0.7045293844       21.6867929242      -15.6316867148  MEMB      64              0.0000000000
      9357       116  POPC      H2X             0.0062307100       20.8576036132      -15.8154621007  MEMB      64              0.0000000000
      9358       116  POPC      H2Y            -1.6750057468       21.4614167602      -16.1186985747  MEMB      64              0.0000000000
      9359       116  POPC      C23             5.1683152681       21.4062995774      -14.8879936814  MEMB      64              0.0000000000
      9360       116  POPC      H3R             4.1683573387       21.0418902865      -14.5628131583  MEMB      64              0.0000000000
      9361       116  POPC      H3S             5.3454897225       22.3511339242      -14.3283187309  MEMB      64              0.0000000000
      9362       116  POPC      C24             6.1858845329       20.3565463486      -14.4051443631  MEMB      64              0.0000000000
      9363       116  POPC      H4R             7.1959096950       20.8195543598      -14.3186748521  MEMB      64              0.0000000000
      9364       116  POPC      H4S             6.2620489386       19.5193394096      -15.1296726986  MEMB      64              0.0000000000
      9365       116  POPC      C25             5.7845045833       19.7819303202      -13.0302707472  MEMB      64              0.0000000000
      9366       116  POPC      H5R             5.5433739580       20.6283516216      -12.3476397998  MEMB      64              0.0000000000
      9367       116  POPC      H5S             6.6485685715       19.2391649348      -12.5852957734  MEMB      64              0.0000000000
      9368       116  POPC      C26             4.5708577056       18.8328828674      -13.0853425030  MEMB      64              0.0000000000
      9369       116  POPC      H6R             4.7151790211       18.0945380521      -13.9025074668  MEMB      64              0.0000000000
      9370       116  POPC      H6S             3.6591544309       19.4294428954      -13.3089457006  MEMB      64              0.0000000000
      9371       116  POPC      C27             4.3492435317       18.0741792251      -11.7660699335  MEMB      64              0.0000000000
      9372       116  POPC      H7R             4.1926584268       18.8087797527      -10.9452559150  MEMB      64              0.0000000000
      9373       116  POPC      H7S             5.2828082236       17.5122981714      -11.5324818482  MEMB      64              0.0000000000
      9374       116  POPC      C28             3.1790548944       17.0635379622      -11.7869409168  MEMB      64              0.0000000000
      9375       116  POPC      H8R             3.1378510450       16.5808689386      -10.7839178562  MEMB      64              0.0000000000
      9376       116  POPC      H8S             3.4382463369       16.2546162383      -12.5068691485  MEMB      64              0.0000000000
      9377       116  POPC      C29             1.8445433866       17.6606353761      -12.1663900438  MEMB      64              0.0000000000
      9378       116  POPC      H91             1.7690785519       17.9439669414      -13.2249993388  MEMB      64              0.0000000000
      9379       116  POPC      C210            0.7782311378       17.8956395753      -11.3791485634  MEMB      64              0.0000000000
      9380       116  POPC      H101           -0.1188065061       18.3477053805      -11.8299626328  MEMB      64              0.0000000000
      9381       116  POPC      C211            0.6304015848       17.6294081263       -9.9027100512  MEMB      64              0.0000000000
      9382       116  POPC      H11R            1.5832021707       17.2914051266       -9.4388043370  MEMB      64              0.0000000000
      9383       116  POPC      H11S           -0.1196082439       16.8268044922       -9.7339938819  MEMB      64              0.0000000000
      9384       116  POPC      C212            0.1641320316       18.9164583687       -9.1911954833  MEMB      64              0.0000000000
      9385       116  POPC      H12R           -0.6973676788       19.3690017401       -9.7350749928  MEMB      64              0.0000000000
      9386       116  POPC      H12S            1.0004479525       19.6519312262       -9.2297133913  MEMB      64              0.0000000000
      9387       116  POPC      C213           -0.2715333750       18.7324653113       -7.7243154904  MEMB      64              0.0000000000
      9388       116  POPC      H13R           -1.3253383384       18.3869792548       -7.6952657691  MEMB      64              0.0000000000
      9389       116  POPC      H13S           -0.2608194852       19.7291227165       -7.2373956076  MEMB      64              0.0000000000
      9390       116  POPC      C214            0.5982829613       17.7550625564       -6.9162485823  MEMB      64              0.0000000000
      9391       116  POPC      H14R            1.6683875605       18.0362866348       -7.0196634583  MEMB      64              0.0000000000
      9392       116  POPC      H14S            0.4695308770       16.7377970203       -7.3506956691  MEMB      64              0.0000000000
      9393       116  POPC      C215            0.2378932584       17.6836946749       -5.4207707470  MEMB      64              0.0000000000
      9394       116  POPC      H15R            0.8141620819       16.8550152906       -4.9524661549  MEMB      64              0.0000000000
      9395       116  POPC      H15S           -0.8372909962       17.4317095353       -5.3426502718  MEMB      64              0.0000000000
      9396       116  POPC      C216            0.5210715257       18.9828425526       -4.6490710302  MEMB      64              0.0000000000
      9397       116  POPC      H16R           -0.0124391137       19.8304559089       -5.1305020057  MEMB      64              0.0000000000
      9398       116  POPC      H16S            1.6086842717       19.1995656282       -4.7043412963  MEMB      64              0.0000000000
      9399       116  POPC      C217            0.1101212544       18.9556046722       -3.1700168914  MEMB      64              0.0000000000
      9400       116  POPC      H17R            0.7777819605       18.2530470059       -2.6213205664  MEMB      64              0.0000000000
      9401       116  POPC      H17S           -0.9315022222       18.5734877172       -3.0804600763  MEMB      64              0.0000000000
      9402       116  POPC      C218            0.1889015589       20.3470941559       -2.5322594960  MEMB      64              0.0000000000
      9403       116  POPC      H18R            1.1968511580       20.7852956446       -2.6935903455  MEMB      64              0.0000000000
      9404       116  POPC      H18S           -0.0098054602       20.3049553021       -1.4408526605  MEMB      64              0.0000000000
      9405       116  POPC      H18T           -0.5500939645       21.0293624013       -3.0036860876  MEMB      64              0.0000000000
      9406       116  POPC      C33            -0.9059920018       21.8637410155      -14.0989010608  MEMB      64              0.0000000000
      9407       116  POPC      H3X            -1.4180906393       20.9552641967      -13.7070484674  MEMB      64              0.0000000000
      9408       116  POPC      H3Y            -1.5793280656       22.7247558091      -13.8879879795  MEMB      64              0.0000000000
      9409       116  POPC      C34             0.4062354484       22.0399471896      -13.3032952657  MEMB      64              0.0000000000
      9410       116  POPC      H4X             1.2663233883       21.7346807128      -13.9412746326  MEMB      64              0.0000000000
      9411       116  POPC      H4Y             0.3991909503       21.3576900447      -12.4248176531  MEMB      64              0.0000000000
      9412       116  POPC      C35             0.6492345948       23.4718891628      -12.7822227356  MEMB      64              0.0000000000
      9413       116  POPC      H5X             0.2918589211       24.2084889396      -13.5317717160  MEMB      64              0.0000000000
      9414       116  POPC      H5Y             1.7454504494       23.6385938903      -12.6682573034  MEMB      64              0.0000000000
      9415       116  POPC      C36            -0.0184045938       23.7823434605      -11.4283474017  MEMB      64              0.0000000000
      9416       116  POPC      H6X            -1.0937290555       23.5034899247      -11.4553681285  MEMB      64              0.0000000000
      9417       116  POPC      H6Y             0.0362293949       24.8817259637      -11.2549501640  MEMB      64              0.0000000000
      9418       116  POPC      C37             0.6761047810       23.0893083291      -10.2451776797  MEMB      64              0.0000000000
      9419       116  POPC      H7X             1.7691730153       23.2865949487      -10.3220053041  MEMB      64              0.0000000000
      9420       116  POPC      H7Y             0.5297279323       21.9905082797      -10.3263891798  MEMB      64              0.0000000000
      9421       116  POPC      C38             0.1783605040       23.5697948228       -8.8743923113  MEMB      64              0.0000000000
      9422       116  POPC      H8X            -0.9352520734       23.5855478584       -8.8796270094  MEMB      64              0.0000000000
      9423       116  POPC      H8Y             0.5167838028       24.6113942959       -8.7045410816  MEMB      64              0.0000000000
      9424       116  POPC      C39             0.6391666850       22.6747031072       -7.7132369833  MEMB      64              0.0000000000
      9425       116  POPC      H9X             0.1030611475       21.7082703483       -7.8237091516  MEMB      64              0.0000000000
      9426       116  POPC      H9Y             0.3257454698       23.1193011145       -6.7417109076  MEMB      64              0.0000000000
      9427       116  POPC      C310            2.1459335366       22.3725272610       -7.6604832475  MEMB      64              0.0000000000
      9428       116  POPC      H10X            2.6882295418       23.2660431868       -7.2786861166  MEMB      64              0.0000000000
      9429       116  POPC      H10Y            2.5415259209       22.1285192704       -8.6700024264  MEMB      64              0.0000000000
      9430       116  POPC      C311            2.4353164263       21.1661335057       -6.7598668159  MEMB      64              0.0000000000
      9431       116  POPC      H11X            1.9802480832       20.2551564789       -7.2042310304  MEMB      64              0.0000000000
      9432       116  POPC      H11Y            1.9287117606       21.3362246252       -5.7857221915  MEMB      64              0.0000000000
      9433       116  POPC      C312            3.9300397834       20.9093891865       -6.5431474773  MEMB      64              0.0000000000
      9434       116  POPC      H12X            4.5011353287       21.8425927459       -6.7497556165  MEMB      64              0.0000000000
      9435       116  POPC      H12Y            4.2753609305       20.1393135837       -7.2699818216  MEMB      64              0.0000000000
      9436       116  POPC      C313            4.2515158736       20.4597175133       -5.1129357657  MEMB      64              0.0000000000
      9437       116  POPC      H13X            5.3214027903       20.1623927472       -5.0745746842  MEMB      64              0.0000000000
      9438       116  POPC      H13Y            3.6635640434       19.5574208159       -4.8470118367  MEMB      64              0.0000000000
      9439       116  POPC      C314            4.0274858040       21.5724320142       -4.0754736336  MEMB      64              0.0000000000
      9440       116  POPC      H14X            2.9472931834       21.7940652186       -3.9453454820  MEMB      64              0.0000000000
      9441       116  POPC      H14Y            4.5159937636       22.4966034997       -4.4630766644  MEMB      64              0.0000000000
      9442       116  POPC      C315            4.6631450802       21.2305193682       -2.7243551597  MEMB      64              0.0000000000
      9443       116  POPC      H15X            4.7918178771       22.1633096133       -2.1299670700  MEMB      64              0.0000000000
      9444       116  POPC      H15Y            5.6751295445       20.8303498350       -2.9478016583  MEMB      64              0.0000000000
      9445       116  POPC      C316            3.8994374858       20.2049809147       -1.8827128920  MEMB      64              0.0000000000
      9446       116  POPC      H16X            4.5339933698       19.8508180620       -1.0429597156  MEMB      64              0.0000000000
      9447       116  POPC      H16Y            3.6078837004       19.3257291214       -2.4959530027  MEMB      64              0.0000000000
      9448       116  POPC      H16Z            2.9835686167       20.6615979501       -1.4525266425  MEMB      64              0.0000000000
      9449       117  POPC      N              22.2480407630        6.6305126082      -19.5148864798  MEMB      65              0.0000000000
      9450       117  POPC      C12            22.0529806015        7.3062033799      -18.1693224841  MEMB      65              0.0000000000
      9451       117  POPC      H12A           22.8989205008        7.0488697107      -17.5421615436  MEMB      65              0.0000000000
      9452       117  POPC      H12B           21.1546972205        6.9398690947      -17.6899656515  MEMB      65              0.0000000000
      9453       117  POPC      C13            23.6546857827        6.9034931680      -19.9501157361  MEMB      65              0.0000000000
      9454       117  POPC      H13A           23.8419272389        6.5917505547      -20.9668283867  MEMB      65              0.0000000000
      9455       117  POPC      H13B           23.8136360898        7.9877725648      -19.9406148937  MEMB      65              0.0000000000
      9456       117  POPC      H13C           24.3638957876        6.4539487929      -19.2661271736  MEMB      65              0.0000000000
      9457       117  POPC      C14            22.0877237282        5.1554786655      -19.4966038681  MEMB      65              0.0000000000
      9458       117  POPC      H14A           22.1728826764        4.7598609507      -20.5098305843  MEMB      65              0.0000000000
      9459       117  POPC      H14B           22.8120964184        4.6640087742      -18.8715682371  MEMB      65              0.0000000000
      9460       117  POPC      H14C           21.0822414204        4.8400003522      -19.2027117680  MEMB      65              0.0000000000
      9461       117  POPC      C15            21.2581980605        7.1610617090      -20.5033245648  MEMB      65              0.0000000000
      9462       117  POPC      H15A           20.2738816375        6.6962768915      -20.3613679168  MEMB      65              0.0000000000
      9463       117  POPC      H15B           21.5784886153        6.9669632764      -21.5128770763  MEMB      65              0.0000000000
      9464       117  POPC      H15C           21.0972890353        8.2280331994      -20.3855095555  MEMB      65              0.0000000000
      9465       117  POPC      C11            21.9427935632        8.8580727168      -18.1858831763  MEMB      65              0.0000000000
      9466       117  POPC      H11A           21.7785690383        9.2025482179      -17.1414351603  MEMB      65              0.0000000000
      9467       117  POPC      H11B           21.0292038736        9.1370820130      -18.7612783213  MEMB      65              0.0000000000
      9468       117  POPC      P              23.0804186989       11.0575967005      -18.9322336227  MEMB      65              0.0000000000
      9469       117  POPC      O13            21.7946694205       11.4417967180      -19.5589328654  MEMB      65              0.0000000000
      9470       117  POPC      O14            24.3220029740       11.3827104960      -19.6782885498  MEMB      65              0.0000000000
      9471       117  POPC      O12            23.1061837552        9.4805121430      -18.7339343131  MEMB      65              0.0000000000
      9472       117  POPC      O11            23.1545204956       11.6662233062      -17.4706898527  MEMB      65              0.0000000000
      9473       117  POPC      C1             24.1185682024       11.2471688415      -16.5030241536  MEMB      65              0.0000000000
      9474       117  POPC      HA             24.8550326568       12.0676975941      -16.3581565733  MEMB      65              0.0000000000
      9475       117  POPC      HB             24.6993846357       10.3542901056      -16.8283903254  MEMB      65              0.0000000000
      9476       117  POPC      C2             23.4748903986       11.0007526589      -15.0994096154  MEMB      65              0.0000000000
      9477       117  POPC      HS             24.2936098136       11.0166806118      -14.3390645471  MEMB      65              0.0000000000
      9478       117  POPC      O21            22.7587717541        9.7539704018      -15.0106230592  MEMB      65              0.0000000000
      9479       117  POPC      C21            23.5705662265        8.7103341987      -14.9528736427  MEMB      65              0.0000000000
      9480       117  POPC      O22            24.7759799993        8.7435960550      -15.1095556109  MEMB      65              0.0000000000
      9481       117  POPC      C22            22.7738879585        7.4610044472      -14.5885648601  MEMB      65              0.0000000000
      9482       117  POPC      H2R            23.1017901420        6.6596995200      -15.2824728025  MEMB      65              0.0000000000
      9483       117  POPC      H2S            21.6903295431        7.6396921054      -14.7204570028  MEMB      65              0.0000000000
      9484       117  POPC      C3             22.5117250817       12.1467219765      -14.7120926044  MEMB      65              0.0000000000
      9485       117  POPC      HX             21.7786617806       12.3074711005      -15.5355660159  MEMB      65              0.0000000000
      9486       117  POPC      HY             23.1248450761       13.0734453108      -14.6418065131  MEMB      65              0.0000000000
      9487       117  POPC      O31            21.8889469915       11.9002334426      -13.4311209034  MEMB      65              0.0000000000
      9488       117  POPC      C31            20.6514082652       11.4041081239      -13.4477803884  MEMB      65              0.0000000000
      9489       117  POPC      O32            19.9328598411       11.3437877953      -14.4313090754  MEMB      65              0.0000000000
      9490       117  POPC      C32            20.2009077639       11.0803122101      -12.0115644481  MEMB      65              0.0000000000
      9491       117  POPC      H2X            19.7102907902       12.0005567323      -11.6302545981  MEMB      65              0.0000000000
      9492       117  POPC      H2Y            21.0931396259       10.8724907268      -11.3906883240  MEMB      65              0.0000000000
      9493       117  POPC      C23            23.0872022123        7.0163540150      -13.1397376329  MEMB      65              0.0000000000
      9494       117  POPC      H3R            24.1902988817        6.9704188595      -12.9783502598  MEMB      65              0.0000000000
      9495       117  POPC      H3S            22.6937561823        5.9853834505      -12.9798283527  MEMB      65              0.0000000000
      9496       117  POPC      C24            22.5098551465        7.9370552306      -12.0719753142  MEMB      65              0.0000000000
      9497       117  POPC      H4R            21.4076548119        7.9414170036      -12.1729223575  MEMB      65              0.0000000000
      9498       117  POPC      H4S            22.8824429863        8.9727158682      -12.2350628957  MEMB      65              0.0000000000
      9499       117  POPC      C25            22.8830172104        7.4754586216      -10.6570616440  MEMB      65              0.0000000000
      9500       117  POPC      H5R            23.9887372868        7.3814392841      -10.5696033131  MEMB      65              0.0000000000
      9501       117  POPC      H5S            22.4414940256        6.4655791460      -10.4943538934  MEMB      65              0.0000000000
      9502       117  POPC      C26            22.3662036317        8.4180439911       -9.5645604020  MEMB      65              0.0000000000
      9503       117  POPC      H6R            22.3886708375        7.8911098964       -8.5834572064  MEMB      65              0.0000000000
      9504       117  POPC      H6S            21.3073330658        8.6660559122       -9.7889236378  MEMB      65              0.0000000000
      9505       117  POPC      C27            23.1824279161        9.7134729072       -9.4337909822  MEMB      65              0.0000000000
      9506       117  POPC      H7R            23.4316712276       10.0937753196      -10.4492210878  MEMB      65              0.0000000000
      9507       117  POPC      H7S            24.1423451108        9.4742696537       -8.9236224879  MEMB      65              0.0000000000
      9508       117  POPC      C28            22.4147265254       10.8043731096       -8.6653275329  MEMB      65              0.0000000000
      9509       117  POPC      H8R            22.0933192113       10.3900617565       -7.6831381720  MEMB      65              0.0000000000
      9510       117  POPC      H8S            21.4907805991       11.0415318993       -9.2344112818  MEMB      65              0.0000000000
      9511       117  POPC      C29            23.2206370116       12.0627407361       -8.4916488986  MEMB      65              0.0000000000
      9512       117  POPC      H91            24.1214572479       12.1412669663       -9.1221906438  MEMB      65              0.0000000000
      9513       117  POPC      C210           22.9407085101       13.0638433653       -7.6386411913  MEMB      65              0.0000000000
      9514       117  POPC      H101           23.6282183328       13.9205097043       -7.5833369706  MEMB      65              0.0000000000
      9515       117  POPC      C211           21.7818550488       13.1493243288       -6.6835388038  MEMB      65              0.0000000000
      9516       117  POPC      H11R           21.1363326636       12.2445280157       -6.7168106233  MEMB      65              0.0000000000
      9517       117  POPC      H11S           21.1457960689       14.0200392264       -6.9526245476  MEMB      65              0.0000000000
      9518       117  POPC      C212           22.2999234702       13.3486478782       -5.2516181859  MEMB      65              0.0000000000
      9519       117  POPC      H12R           22.7560615293       14.3581683827       -5.1779854723  MEMB      65              0.0000000000
      9520       117  POPC      H12S           23.1024980281       12.6153324261       -5.0111729386  MEMB      65              0.0000000000
      9521       117  POPC      C213           21.2019804365       13.2423365429       -4.1855397254  MEMB      65              0.0000000000
      9522       117  POPC      H13R           20.2804653136       13.7402715738       -4.5484201667  MEMB      65              0.0000000000
      9523       117  POPC      H13S           21.5540736101       13.7969470906       -3.2869813245  MEMB      65              0.0000000000
      9524       117  POPC      C214           20.8925097783       11.7884778305       -3.7954837816  MEMB      65              0.0000000000
      9525       117  POPC      H14R           21.7239612533       11.1553025493       -4.1718776972  MEMB      65              0.0000000000
      9526       117  POPC      H14S           19.9674477723       11.4520338713       -4.3112103284  MEMB      65              0.0000000000
      9527       117  POPC      C215           20.7527711381       11.5726253541       -2.2808756810  MEMB      65              0.0000000000
      9528       117  POPC      H15R           19.7991171314       12.0376226121       -1.9446487514  MEMB      65              0.0000000000
      9529       117  POPC      H15S           21.5926545647       12.0709203784       -1.7533722029  MEMB      65              0.0000000000
      9530       117  POPC      C216           20.7878876206       10.1048535872       -1.8444713378  MEMB      65              0.0000000000
      9531       117  POPC      H16R           20.0301275080        9.5445069391       -2.4327041620  MEMB      65              0.0000000000
      9532       117  POPC      H16S           20.5017716762       10.0363007094       -0.7698627102  MEMB      65              0.0000000000
      9533       117  POPC      C217           22.1670767534        9.4495083572       -2.0116774984  MEMB      65              0.0000000000
      9534       117  POPC      H17R           22.6820243175        9.8283579943       -2.9215462278  MEMB      65              0.0000000000
      9535       117  POPC      H17S           21.9972809006        8.3637679562       -2.1632215972  MEMB      65              0.0000000000
      9536       117  POPC      C218           23.0870229174        9.6279938084       -0.8040401287  MEMB      65              0.0000000000
      9537       117  POPC      H18R           23.2946502511       10.7073445058       -0.6492551364  MEMB      65              0.0000000000
      9538       117  POPC      H18S           24.0571737253        9.1123221191       -0.9598883432  MEMB      65              0.0000000000
      9539       117  POPC      H18T           22.6144098160        9.2111595216        0.1121526729  MEMB      65              0.0000000000
      9540       117  POPC      C33            19.1943038519        9.9019359328      -11.9233495297  MEMB      65              0.0000000000
      9541       117  POPC      H3X            19.7138761296        8.9280453181      -11.8766912529  MEMB      65              0.0000000000
      9542       117  POPC      H3Y            18.5766407955        9.8882570358      -12.8508582607  MEMB      65              0.0000000000
      9543       117  POPC      C34            18.2049268679        9.9882515632      -10.7475536173  MEMB      65              0.0000000000
      9544       117  POPC      H4X            17.3037752532        9.3943622333      -11.0273826974  MEMB      65              0.0000000000
      9545       117  POPC      H4Y            17.8924721981       11.0423792136      -10.5940522697  MEMB      65              0.0000000000
      9546       117  POPC      C35            18.6932029676        9.4263361690       -9.4099876442  MEMB      65              0.0000000000
      9547       117  POPC      H5X            19.6034604270        9.9788786007       -9.0960865571  MEMB      65              0.0000000000
      9548       117  POPC      H5Y            18.9597077151        8.3526729512       -9.5347403437  MEMB      65              0.0000000000
      9549       117  POPC      C36            17.6133779449        9.5542134217       -8.3219531424  MEMB      65              0.0000000000
      9550       117  POPC      H6X            16.6565438210        9.1494587682       -8.7216413509  MEMB      65              0.0000000000
      9551       117  POPC      H6Y            17.4453119240       10.6282221436       -8.0987375954  MEMB      65              0.0000000000
      9552       117  POPC      C37            17.9522861160        8.8261834333       -7.0131277154  MEMB      65              0.0000000000
      9553       117  POPC      H7X            17.9170582638        7.7326042310       -7.2140240136  MEMB      65              0.0000000000
      9554       117  POPC      H7Y            17.1689613981        9.0550670812       -6.2549876492  MEMB      65              0.0000000000
      9555       117  POPC      C38            19.3291669152        9.2015101214       -6.4457585812  MEMB      65              0.0000000000
      9556       117  POPC      H8X            19.3698854892       10.3020925335       -6.2857202441  MEMB      65              0.0000000000
      9557       117  POPC      H8Y            20.1173993489        8.9453812744       -7.1884344717  MEMB      65              0.0000000000
      9558       117  POPC      C39            19.6775579680        8.4790093774       -5.1366441211  MEMB      65              0.0000000000
      9559       117  POPC      H9X            18.9547943289        8.7716447120       -4.3430970932  MEMB      65              0.0000000000
      9560       117  POPC      H9Y            20.6867729507        8.8189768484       -4.8111186507  MEMB      65              0.0000000000
      9561       117  POPC      C310           19.6791306510        6.9500548562       -5.2858584031  MEMB      65              0.0000000000
      9562       117  POPC      H10X           20.2723798204        6.6589905010       -6.1806910939  MEMB      65              0.0000000000
      9563       117  POPC      H10Y           18.6287339366        6.6156476493       -5.4486514145  MEMB      65              0.0000000000
      9564       117  POPC      C311           20.2254381131        6.2109939633       -4.0591782129  MEMB      65              0.0000000000
      9565       117  POPC      H11X           19.8957512461        5.1492768655       -4.1202518063  MEMB      65              0.0000000000
      9566       117  POPC      H11Y           19.7902545518        6.6532633696       -3.1353055514  MEMB      65              0.0000000000
      9567       117  POPC      C312           21.7565918716        6.1969455014       -3.9651445391  MEMB      65              0.0000000000
      9568       117  POPC      H12X           22.1607934168        7.2249248546       -4.0816697076  MEMB      65              0.0000000000
      9569       117  POPC      H12Y           22.1518013764        5.5859045252       -4.8070085644  MEMB      65              0.0000000000
      9570       117  POPC      C313           22.2329127201        5.5993897576       -2.6326338871  MEMB      65              0.0000000000
      9571       117  POPC      H13X           21.6931680287        4.6380802899       -2.4730867144  MEMB      65              0.0000000000
      9572       117  POPC      H13Y           21.9491466970        6.2754858900       -1.7981649043  MEMB      65              0.0000000000
      9573       117  POPC      C314           23.7402942412        5.3218155248       -2.5939729309  MEMB      65              0.0000000000
      9574       117  POPC      H14X           24.0510851296        4.9078164132       -3.5704692828  MEMB      65              0.0000000000
      9575       117  POPC      H14Y           23.9698787843        4.5417682111       -1.8379391015  MEMB      65              0.0000000000
      9576       117  POPC      C315           24.5972515541        6.5513010450       -2.2925574915  MEMB      65              0.0000000000
      9577       117  POPC      H15X           24.0270708523        7.4779448036       -2.5051063459  MEMB      65              0.0000000000
      9578       117  POPC      H15Y           25.4513956035        6.5439033273       -3.0027932025  MEMB      65              0.0000000000
      9579       117  POPC      C316           25.1337450890        6.5619608231       -0.8613981989  MEMB      65              0.0000000000
      9580       117  POPC      H16X           25.8393352690        7.4043532413       -0.7000497437  MEMB      65              0.0000000000
      9581       117  POPC      H16Y           25.6660965262        5.6120155452       -0.6435433305  MEMB      65              0.0000000000
      9582       117  POPC      H16Z           24.3039535474        6.6624962238       -0.1317704938  MEMB      65              0.0000000000
      9583       118  POPC      N             -21.8528850723      -10.8257856089      -18.7085707762  MEMB      66              0.0000000000
      9584       118  POPC      C12           -20.7046789338      -10.1870496131      -19.4994536458  MEMB      66              0.0000000000
      9585       118  POPC      H12A          -20.0671995884       -9.6485123189      -18.8059350592  MEMB      66              0.0000000000
      9586       118  POPC      H12B          -21.1172469178       -9.4891040938      -20.2133475870  MEMB      66              0.0000000000
      9587       118  POPC      C13           -21.2754544115      -11.8519890410      -17.8027641696  MEMB      66              0.0000000000
      9588       118  POPC      H13A          -20.7402888451      -12.6075531689      -18.3818586411  MEMB      66              0.0000000000
      9589       118  POPC      H13B          -20.5186657680      -11.4250790589      -17.1553094153  MEMB      66              0.0000000000
      9590       118  POPC      H13C          -22.0271797522      -12.3341698917      -17.1990561801  MEMB      66              0.0000000000
      9591       118  POPC      C14           -22.5911275254       -9.8335661746      -17.8722602043  MEMB      66              0.0000000000
      9592       118  POPC      H14A          -23.3324883493      -10.3476359020      -17.2721363806  MEMB      66              0.0000000000
      9593       118  POPC      H14B          -21.9280861646       -9.3221788764      -17.1891495748  MEMB      66              0.0000000000
      9594       118  POPC      H14C          -23.1144863826       -9.1151734337      -18.4939896191  MEMB      66              0.0000000000
      9595       118  POPC      C15           -22.8313341438      -11.4883422279      -19.6321245153  MEMB      66              0.0000000000
      9596       118  POPC      H15A          -23.3698531568      -10.7468114475      -20.2236499157  MEMB      66              0.0000000000
      9597       118  POPC      H15B          -23.5551915324      -12.0852804029      -19.0932937019  MEMB      66              0.0000000000
      9598       118  POPC      H15C          -22.2772592783      -12.1374590351      -20.3034104441  MEMB      66              0.0000000000
      9599       118  POPC      C11           -19.7130431850      -11.0956064904      -20.2880994992  MEMB      66              0.0000000000
      9600       118  POPC      H11A          -19.2337308489      -10.4711452846      -21.0744526674  MEMB      66              0.0000000000
      9601       118  POPC      H11B          -20.2679134456      -11.9014969651      -20.8228839505  MEMB      66              0.0000000000
      9602       118  POPC      P             -18.1963293027      -13.0860618997      -19.4685737062  MEMB      66              0.0000000000
      9603       118  POPC      O13           -17.2828029492      -13.3567627089      -18.3407498612  MEMB      66              0.0000000000
      9604       118  POPC      O14           -17.7123725271      -13.4978477514      -20.8073319171  MEMB      66              0.0000000000
      9605       118  POPC      O12           -18.6680216730      -11.5694943513      -19.4353406029  MEMB      66              0.0000000000
      9606       118  POPC      O11           -19.5851558210      -13.8235652952      -19.2309444502  MEMB      66              0.0000000000
      9607       118  POPC      C1            -19.6393212349      -15.1943796140      -18.8542304965  MEMB      66              0.0000000000
      9608       118  POPC      HA            -18.6533103394      -15.7035243601      -18.9765463821  MEMB      66              0.0000000000
      9609       118  POPC      HB            -20.3759491618      -15.7103677762      -19.5022996390  MEMB      66              0.0000000000
      9610       118  POPC      C2            -20.1382910348      -15.4140765253      -17.4027741949  MEMB      66              0.0000000000
      9611       118  POPC      HS            -21.2528047442      -15.4168072155      -17.4525034079  MEMB      66              0.0000000000
      9612       118  POPC      O21           -19.6729032670      -14.3627532543      -16.5395319860  MEMB      66              0.0000000000
      9613       118  POPC      C21           -20.4971120758      -14.0285608054      -15.5645063159  MEMB      66              0.0000000000
      9614       118  POPC      O22           -21.6087012333      -14.4945263149      -15.3851999804  MEMB      66              0.0000000000
      9615       118  POPC      C22           -19.8465093546      -12.9318072655      -14.7249884332  MEMB      66              0.0000000000
      9616       118  POPC      H2R           -19.6931273763      -12.0432336953      -15.3689802197  MEMB      66              0.0000000000
      9617       118  POPC      H2S           -18.8484608752      -13.3144179762      -14.4273866150  MEMB      66              0.0000000000
      9618       118  POPC      C3            -19.6465013648      -16.8073504055      -16.9188049812  MEMB      66              0.0000000000
      9619       118  POPC      HX            -18.6145559851      -16.9865941341      -17.2967399016  MEMB      66              0.0000000000
      9620       118  POPC      HY            -20.3015866928      -17.5762521280      -17.3871410904  MEMB      66              0.0000000000
      9621       118  POPC      O31           -19.7145074582      -16.9444576013      -15.4970237998  MEMB      66              0.0000000000
      9622       118  POPC      C31           -18.6483060105      -16.5511665534      -14.8011473872  MEMB      66              0.0000000000
      9623       118  POPC      O32           -17.5805855256      -16.1960793892      -15.2661894137  MEMB      66              0.0000000000
      9624       118  POPC      C32           -19.0612671975      -16.5971365366      -13.3395228850  MEMB      66              0.0000000000
      9625       118  POPC      H2X           -19.2139460449      -17.6748754369      -13.1264668129  MEMB      66              0.0000000000
      9626       118  POPC      H2Y           -20.0302705565      -16.0655588666      -13.2209168031  MEMB      66              0.0000000000
      9627       118  POPC      C23           -20.6806667280      -12.5483637057      -13.4770288836  MEMB      66              0.0000000000
      9628       118  POPC      H3R           -20.8003340310      -13.4562008096      -12.8399468995  MEMB      66              0.0000000000
      9629       118  POPC      H3S           -21.7006077969      -12.2151526065      -13.7721037807  MEMB      66              0.0000000000
      9630       118  POPC      C24           -20.0260479624      -11.4454292745      -12.6298602988  MEMB      66              0.0000000000
      9631       118  POPC      H4R           -20.5289530143      -11.4538714493      -11.6351172131  MEMB      66              0.0000000000
      9632       118  POPC      H4S           -20.1977573852      -10.4466459491      -13.0873242365  MEMB      66              0.0000000000
      9633       118  POPC      C25           -18.5190282774      -11.6673502365      -12.4216989673  MEMB      66              0.0000000000
      9634       118  POPC      H5R           -17.9380482980      -11.3306949586      -13.3079518392  MEMB      66              0.0000000000
      9635       118  POPC      H5S           -18.3657578090      -12.7655927838      -12.3271898780  MEMB      66              0.0000000000
      9636       118  POPC      C26           -17.9616250009      -11.0289768444      -11.1428546619  MEMB      66              0.0000000000
      9637       118  POPC      H6R           -18.7794252607      -10.9564075993      -10.3939797784  MEMB      66              0.0000000000
      9638       118  POPC      H6S           -17.6124096529       -9.9944389669      -11.3415343515  MEMB      66              0.0000000000
      9639       118  POPC      C27           -16.8355818841      -11.8705306476      -10.5223687548  MEMB      66              0.0000000000
      9640       118  POPC      H7R           -15.9214469048      -11.7788790716      -11.1515643553  MEMB      66              0.0000000000
      9641       118  POPC      H7S           -17.1440993623      -12.9419570527      -10.5448283224  MEMB      66              0.0000000000
      9642       118  POPC      C28           -16.5313901853      -11.4744306661       -9.0676255075  MEMB      66              0.0000000000
      9643       118  POPC      H8R           -17.4687598977      -11.4543985561       -8.4764832639  MEMB      66              0.0000000000
      9644       118  POPC      H8S           -16.1296870600      -10.4366898856       -9.0639452365  MEMB      66              0.0000000000
      9645       118  POPC      C29           -15.5241970248      -12.4249227219       -8.4830088776  MEMB      66              0.0000000000
      9646       118  POPC      H91           -14.8040199291      -12.8144654645       -9.2200214862  MEMB      66              0.0000000000
      9647       118  POPC      C210          -15.4237220459      -12.8654098590       -7.2161374148  MEMB      66              0.0000000000
      9648       118  POPC      H101          -14.5735654026      -13.5252476277       -6.9796097584  MEMB      66              0.0000000000
      9649       118  POPC      C211          -16.2701804726      -12.5529156620       -6.0095712665  MEMB      66              0.0000000000
      9650       118  POPC      H11R          -17.0336002591      -11.7726328528       -6.2127638311  MEMB      66              0.0000000000
      9651       118  POPC      H11S          -15.6300303797      -12.1914057483       -5.1732228982  MEMB      66              0.0000000000
      9652       118  POPC      C212          -16.9502009220      -13.8630389646       -5.5825615181  MEMB      66              0.0000000000
      9653       118  POPC      H12R          -16.1812964607      -14.6424490291       -5.3843050699  MEMB      66              0.0000000000
      9654       118  POPC      H12S          -17.5972662497      -14.2237766441       -6.4155605661  MEMB      66              0.0000000000
      9655       118  POPC      C213          -17.8270875956      -13.7603994215       -4.3326678238  MEMB      66              0.0000000000
      9656       118  POPC      H13R          -18.6310110766      -13.0245639475       -4.5507304606  MEMB      66              0.0000000000
      9657       118  POPC      H13S          -17.2397266160      -13.3754263057       -3.4719636797  MEMB      66              0.0000000000
      9658       118  POPC      C214          -18.4277463026      -15.1347683066       -3.9857776713  MEMB      66              0.0000000000
      9659       118  POPC      H14R          -17.6163025978      -15.8213101286       -3.6568040451  MEMB      66              0.0000000000
      9660       118  POPC      H14S          -18.8680335214      -15.5607962823       -4.9176367971  MEMB      66              0.0000000000
      9661       118  POPC      C215          -19.5302669617      -15.0994475338       -2.9191416674  MEMB      66              0.0000000000
      9662       118  POPC      H15R          -19.0982564079      -14.8688517193       -1.9204209343  MEMB      66              0.0000000000
      9663       118  POPC      H15S          -19.9879503128      -16.1147117003       -2.8606596443  MEMB      66              0.0000000000
      9664       118  POPC      C216          -20.6212710292      -14.0744486511       -3.2535257113  MEMB      66              0.0000000000
      9665       118  POPC      H16R          -20.8465174774      -14.1455277713       -4.3430927521  MEMB      66              0.0000000000
      9666       118  POPC      H16S          -20.2514603020      -13.0462822918       -3.0494424595  MEMB      66              0.0000000000
      9667       118  POPC      C217          -21.9196448618      -14.3121329671       -2.4894129557  MEMB      66              0.0000000000
      9668       118  POPC      H17R          -21.7340427260      -14.2755878643       -1.3932427998  MEMB      66              0.0000000000
      9669       118  POPC      H17S          -22.2492818158      -15.3411239785       -2.7373457703  MEMB      66              0.0000000000
      9670       118  POPC      C218          -23.0287696649      -13.3330630284       -2.8669888937  MEMB      66              0.0000000000
      9671       118  POPC      H18R          -22.7913361700      -12.3118276827       -2.5029153332  MEMB      66              0.0000000000
      9672       118  POPC      H18S          -23.9899400699      -13.6520386832       -2.4117511988  MEMB      66              0.0000000000
      9673       118  POPC      H18T          -23.1590550389      -13.2917456525       -3.9708173343  MEMB      66              0.0000000000
      9674       118  POPC      C33           -18.0421495689      -16.0370572034      -12.3358853043  MEMB      66              0.0000000000
      9675       118  POPC      H3X           -18.0883162489      -14.9296023694      -12.2934967200  MEMB      66              0.0000000000
      9676       118  POPC      H3Y           -17.0152874821      -16.3107649103      -12.6532108462  MEMB      66              0.0000000000
      9677       118  POPC      C34           -18.2603799710      -16.6485764503      -10.9466491777  MEMB      66              0.0000000000
      9678       118  POPC      H4X           -17.3575449645      -16.4454611041      -10.3354739763  MEMB      66              0.0000000000
      9679       118  POPC      H4Y           -18.3541508336      -17.7542002872      -11.0466147206  MEMB      66              0.0000000000
      9680       118  POPC      C35           -19.4699266237      -16.0959341418      -10.1788726532  MEMB      66              0.0000000000
      9681       118  POPC      H5X           -19.6367804620      -16.7351365317       -9.2804840915  MEMB      66              0.0000000000
      9682       118  POPC      H5Y           -20.3864030555      -16.1407894085      -10.8037960862  MEMB      66              0.0000000000
      9683       118  POPC      C36           -19.2522992014      -14.6590004430       -9.7081905474  MEMB      66              0.0000000000
      9684       118  POPC      H6X           -19.3208563457      -13.9705995253      -10.5786135715  MEMB      66              0.0000000000
      9685       118  POPC      H6Y           -18.2236410048      -14.5685182093       -9.2873528270  MEMB      66              0.0000000000
      9686       118  POPC      C37           -20.2398597763      -14.2151642015       -8.6217165050  MEMB      66              0.0000000000
      9687       118  POPC      H7X           -20.1094693307      -14.8681537435       -7.7299627256  MEMB      66              0.0000000000
      9688       118  POPC      H7Y           -21.2845715889      -14.3127782472       -8.9864415230  MEMB      66              0.0000000000
      9689       118  POPC      C38           -19.9366984088      -12.7784466497       -8.2054105227  MEMB      66              0.0000000000
      9690       118  POPC      H8X           -19.9967470937      -12.1159627987       -9.0962862579  MEMB      66              0.0000000000
      9691       118  POPC      H8Y           -18.8846581289      -12.7797299298       -7.8403065034  MEMB      66              0.0000000000
      9692       118  POPC      C39           -20.8069780663      -12.1960986436       -7.0901655562  MEMB      66              0.0000000000
      9693       118  POPC      H9X           -20.9418540963      -12.9476635882       -6.2816697933  MEMB      66              0.0000000000
      9694       118  POPC      H9Y           -21.8093882330      -11.9322707875       -7.4920490596  MEMB      66              0.0000000000
      9695       118  POPC      C310          -20.1243276827      -10.9511461870       -6.5067947346  MEMB      66              0.0000000000
      9696       118  POPC      H10X          -19.7769417563      -10.2971460822       -7.3395513552  MEMB      66              0.0000000000
      9697       118  POPC      H10Y          -19.2233178094      -11.2780396979       -5.9419111081  MEMB      66              0.0000000000
      9698       118  POPC      C311          -21.0159544811      -10.1250237809       -5.5760653481  MEMB      66              0.0000000000
      9699       118  POPC      H11X          -21.5228394247      -10.7959399071       -4.8510090133  MEMB      66              0.0000000000
      9700       118  POPC      H11Y          -21.8087939546       -9.6506825566       -6.1940987806  MEMB      66              0.0000000000
      9701       118  POPC      C312          -20.2133206280       -9.0344169280       -4.8432140615  MEMB      66              0.0000000000
      9702       118  POPC      H12X          -20.8509881688       -8.1425081622       -4.6727225185  MEMB      66              0.0000000000
      9703       118  POPC      H12Y          -19.3864901845       -8.7021249438       -5.5101742644  MEMB      66              0.0000000000
      9704       118  POPC      C313          -19.6267769005       -9.4934297177       -3.4945799847  MEMB      66              0.0000000000
      9705       118  POPC      H13X          -18.9211834497       -8.7098982109       -3.1365969660  MEMB      66              0.0000000000
      9706       118  POPC      H13Y          -19.0470633791      -10.4292128319       -3.6560096098  MEMB      66              0.0000000000
      9707       118  POPC      C314          -20.6775571002       -9.7396047989       -2.3957005132  MEMB      66              0.0000000000
      9708       118  POPC      H14X          -21.5049106556      -10.3626788700       -2.7994913055  MEMB      66              0.0000000000
      9709       118  POPC      H14Y          -21.1188509263       -8.7641180563       -2.0913727769  MEMB      66              0.0000000000
      9710       118  POPC      C315          -20.1321317872      -10.4521094691       -1.1470433510  MEMB      66              0.0000000000
      9711       118  POPC      H15X          -19.8993768187      -11.5082854917       -1.4159072208  MEMB      66              0.0000000000
      9712       118  POPC      H15Y          -20.9390835082      -10.4826947175       -0.3778990099  MEMB      66              0.0000000000
      9713       118  POPC      C316          -18.8788771164       -9.8117354593       -0.5429191988  MEMB      66              0.0000000000
      9714       118  POPC      H16X          -18.0383027082       -9.8467624416       -1.2691706976  MEMB      66              0.0000000000
      9715       118  POPC      H16Y          -18.5677074874      -10.3589669963        0.3726201635  MEMB      66              0.0000000000
      9716       118  POPC      H16Z          -19.0733822670       -8.7509264358       -0.2774255297  MEMB      66              0.0000000000
      9717       119  POPC      N             -14.7240606625      -16.2116405990      -18.5219056556  MEMB      67              0.0000000000
      9718       119  POPC      C12           -13.9271057553      -17.3822336911      -17.9445971024  MEMB      67              0.0000000000
      9719       119  POPC      H12A          -14.6282378766      -18.1279660045      -17.5769183623  MEMB      67              0.0000000000
      9720       119  POPC      H12B          -13.3367190535      -17.0324042115      -17.1067743661  MEMB      67              0.0000000000
      9721       119  POPC      C13           -13.8028336892      -15.1412690002      -19.0225692448  MEMB      67              0.0000000000
      9722       119  POPC      H13A          -13.1453499916      -14.7737681152      -18.2418181914  MEMB      67              0.0000000000
      9723       119  POPC      H13B          -13.1901355414      -15.5457383658      -19.8203223951  MEMB      67              0.0000000000
      9724       119  POPC      H13C          -14.3895818052      -14.3097448453      -19.3941892326  MEMB      67              0.0000000000
      9725       119  POPC      C14           -15.5773258593      -16.6993116899      -19.6550747529  MEMB      67              0.0000000000
      9726       119  POPC      H14A          -14.9539896242      -17.2133489639      -20.3857740834  MEMB      67              0.0000000000
      9727       119  POPC      H14B          -16.2533549848      -17.4660803599      -19.2951849341  MEMB      67              0.0000000000
      9728       119  POPC      H14C          -16.1594145137      -15.9044317063      -20.0969696528  MEMB      67              0.0000000000
      9729       119  POPC      C15           -15.6319276801      -15.6132619458      -17.4886624804  MEMB      67              0.0000000000
      9730       119  POPC      H15A          -15.0949437246      -15.0778252176      -16.7178771018  MEMB      67              0.0000000000
      9731       119  POPC      H15B          -16.2476548416      -16.3416012909      -16.9731577631  MEMB      67              0.0000000000
      9732       119  POPC      H15C          -16.3176307590      -14.8861308962      -17.9274387115  MEMB      67              0.0000000000
      9733       119  POPC      C11           -12.9569408155      -18.1335720747      -18.8894340675  MEMB      67              0.0000000000
      9734       119  POPC      H11A          -12.3045675804      -18.8287356985      -18.3331125199  MEMB      67              0.0000000000
      9735       119  POPC      H11B          -12.2784007380      -17.4039828256      -19.3813201354  MEMB      67              0.0000000000
      9736       119  POPC      P             -14.4502719866      -20.1681081795      -19.7939656760  MEMB      67              0.0000000000
      9737       119  POPC      O13           -13.5846662890      -21.2201550390      -20.3934535520  MEMB      67              0.0000000000
      9738       119  POPC      O14           -15.6959990709      -19.7623081095      -20.4888399666  MEMB      67              0.0000000000
      9739       119  POPC      O12           -13.6294833196      -18.8345269506      -19.8915347855  MEMB      67              0.0000000000
      9740       119  POPC      O11           -14.7442721819      -20.4725714111      -18.2234155632  MEMB      67              0.0000000000
      9741       119  POPC      C1            -15.7744625693      -21.4654082054      -17.9148227858  MEMB      67              0.0000000000
      9742       119  POPC      HA            -15.5281930818      -22.4395952131      -18.4047257938  MEMB      67              0.0000000000
      9743       119  POPC      HB            -16.7597662795      -21.1215133937      -18.3119350465  MEMB      67              0.0000000000
      9744       119  POPC      C2            -16.0844607984      -21.8639117719      -16.3902842512  MEMB      67              0.0000000000
      9745       119  POPC      HS            -16.9747742670      -22.5359102352      -16.4142779016  MEMB      67              0.0000000000
      9746       119  POPC      O21           -16.3761808277      -20.6963211219      -15.6037017608  MEMB      67              0.0000000000
      9747       119  POPC      C21           -16.3780784851      -20.6582910684      -14.2729777802  MEMB      67              0.0000000000
      9748       119  POPC      O22           -16.5625885489      -21.5662182539      -13.4873712194  MEMB      67              0.0000000000
      9749       119  POPC      C22           -16.1713271224      -19.1717596105      -13.9128863784  MEMB      67              0.0000000000
      9750       119  POPC      H2R           -17.1657161790      -18.7338157419      -13.7091237396  MEMB      67              0.0000000000
      9751       119  POPC      H2S           -15.7514369960      -18.6664098096      -14.8111825139  MEMB      67              0.0000000000
      9752       119  POPC      C3            -14.9347566245      -22.6711604920      -15.7241668497  MEMB      67              0.0000000000
      9753       119  POPC      HX            -14.6431291192      -23.5059307107      -16.3998588149  MEMB      67              0.0000000000
      9754       119  POPC      HY            -15.3329919640      -23.1456043041      -14.8008023389  MEMB      67              0.0000000000
      9755       119  POPC      O31           -13.8455651148      -21.8035723345      -15.3693122429  MEMB      67              0.0000000000
      9756       119  POPC      C31           -12.7954993341      -21.8524461491      -16.1462697713  MEMB      67              0.0000000000
      9757       119  POPC      O32           -12.4800067645      -22.7404620572      -16.9182975234  MEMB      67              0.0000000000
      9758       119  POPC      C32           -11.8905394727      -20.6542841933      -15.9243749142  MEMB      67              0.0000000000
      9759       119  POPC      H2X           -12.0576902644      -19.9686237191      -16.7708407271  MEMB      67              0.0000000000
      9760       119  POPC      H2Y           -10.8583146726      -21.0506502253      -15.9675357199  MEMB      67              0.0000000000
      9761       119  POPC      C23           -15.2115533750      -18.8696557039      -12.7336574038  MEMB      67              0.0000000000
      9762       119  POPC      H3R           -14.5053610023      -19.7118747987      -12.5760386504  MEMB      67              0.0000000000
      9763       119  POPC      H3S           -15.8331800432      -18.7823511978      -11.8160527973  MEMB      67              0.0000000000
      9764       119  POPC      C24           -14.4257554790      -17.5606433251      -12.9863904932  MEMB      67              0.0000000000
      9765       119  POPC      H4R           -15.1524137626      -16.7902390770      -13.3195983646  MEMB      67              0.0000000000
      9766       119  POPC      H4S           -13.7204083743      -17.7004173707      -13.8341115500  MEMB      67              0.0000000000
      9767       119  POPC      C25           -13.6411446478      -16.9642834787      -11.7955431313  MEMB      67              0.0000000000
      9768       119  POPC      H5R           -13.5025709410      -15.8750494123      -11.9767717770  MEMB      67              0.0000000000
      9769       119  POPC      H5S           -12.6216533863      -17.4007522805      -11.7557631653  MEMB      67              0.0000000000
      9770       119  POPC      C26           -14.3111047745      -17.1706065347      -10.4351454227  MEMB      67              0.0000000000
      9771       119  POPC      H6R           -14.4352377131      -18.2619123036      -10.2504211864  MEMB      67              0.0000000000
      9772       119  POPC      H6S           -15.3192749058      -16.7106372580      -10.4675684269  MEMB      67              0.0000000000
      9773       119  POPC      C27           -13.5446965468      -16.5971741123       -9.2397257240  MEMB      67              0.0000000000
      9774       119  POPC      H7R           -13.4857711723      -15.4892365717       -9.3111696733  MEMB      67              0.0000000000
      9775       119  POPC      H7S           -12.5023165032      -16.9845458214       -9.2561568530  MEMB      67              0.0000000000
      9776       119  POPC      C28           -14.2077264303      -17.0280627449       -7.9194489209  MEMB      67              0.0000000000
      9777       119  POPC      H8R           -13.5090902875      -16.7887394284       -7.0862122277  MEMB      67              0.0000000000
      9778       119  POPC      H8S           -14.3316485500      -18.1340618087       -7.9249999586  MEMB      67              0.0000000000
      9779       119  POPC      C29           -15.5203378323      -16.3204598575       -7.7010658381  MEMB      67              0.0000000000
      9780       119  POPC      H91           -15.3988649967      -15.2677846971       -7.4685969625  MEMB      67              0.0000000000
      9781       119  POPC      C210          -16.7730391826      -16.7973009109       -7.7625710470  MEMB      67              0.0000000000
      9782       119  POPC      H101          -17.6145814113      -16.1137404590       -7.5707509285  MEMB      67              0.0000000000
      9783       119  POPC      C211          -17.1530388427      -18.2115513479       -8.0830963984  MEMB      67              0.0000000000
      9784       119  POPC      H11R          -16.5205293558      -18.5982977633       -8.9139786889  MEMB      67              0.0000000000
      9785       119  POPC      H11S          -18.2071342271      -18.2753900343       -8.4345231156  MEMB      67              0.0000000000
      9786       119  POPC      C212          -16.9861826995      -19.1306398508       -6.8730443991  MEMB      67              0.0000000000
      9787       119  POPC      H12R          -17.9118496807      -19.1073122499       -6.2599947784  MEMB      67              0.0000000000
      9788       119  POPC      H12S          -16.1638886325      -18.7785927178       -6.2187976317  MEMB      67              0.0000000000
      9789       119  POPC      C213          -16.6502351763      -20.5489859175       -7.3255162573  MEMB      67              0.0000000000
      9790       119  POPC      H13R          -15.6193962021      -20.5705907014       -7.7473328089  MEMB      67              0.0000000000
      9791       119  POPC      H13S          -17.3532900930      -20.8343430541       -8.1435874840  MEMB      67              0.0000000000
      9792       119  POPC      C214          -16.7781079867      -21.5870162781       -6.2152257779  MEMB      67              0.0000000000
      9793       119  POPC      H14R          -16.5687557083      -22.5710108934       -6.6719146556  MEMB      67              0.0000000000
      9794       119  POPC      H14S          -17.8312277324      -21.6229637482       -5.8784012482  MEMB      67              0.0000000000
      9795       119  POPC      C215          -15.9076034396      -21.3859367332       -4.9688735373  MEMB      67              0.0000000000
      9796       119  POPC      H15R          -15.8487495738      -20.3112028410       -4.6947424502  MEMB      67              0.0000000000
      9797       119  POPC      H15S          -14.8735526085      -21.7407202485       -5.1696438737  MEMB      67              0.0000000000
      9798       119  POPC      C216          -16.5140806987      -22.1342922393       -3.7758244071  MEMB      67              0.0000000000
      9799       119  POPC      H16R          -16.7721691287      -23.1738860374       -4.0648720067  MEMB      67              0.0000000000
      9800       119  POPC      H16S          -17.4612021644      -21.6196890739       -3.4903357798  MEMB      67              0.0000000000
      9801       119  POPC      C217          -15.5906951571      -22.1888291074       -2.5642912657  MEMB      67              0.0000000000
      9802       119  POPC      H17R          -15.2784504966      -21.1495924788       -2.3438273393  MEMB      67              0.0000000000
      9803       119  POPC      H17S          -14.6672957953      -22.7594341220       -2.8111927884  MEMB      67              0.0000000000
      9804       119  POPC      C218          -16.2779530927      -22.8140751428       -1.3517853757  MEMB      67              0.0000000000
      9805       119  POPC      H18R          -16.4168303409      -23.9023364245       -1.5266375361  MEMB      67              0.0000000000
      9806       119  POPC      H18S          -17.2801646338      -22.3645592703       -1.1820118597  MEMB      67              0.0000000000
      9807       119  POPC      H18T          -15.6714816780      -22.6739251690       -0.4325568330  MEMB      67              0.0000000000
      9808       119  POPC      C33           -12.0765980959      -19.9084539723      -14.5993241825  MEMB      67              0.0000000000
      9809       119  POPC      H3X           -13.1526350785      -19.8086952366      -14.3394118005  MEMB      67              0.0000000000
      9810       119  POPC      H3Y           -11.6718308709      -18.8718464091      -14.6925491943  MEMB      67              0.0000000000
      9811       119  POPC      C34           -11.3207072724      -20.5947914732      -13.4599552800  MEMB      67              0.0000000000
      9812       119  POPC      H4X           -10.2426239061      -20.6928031199      -13.7086806248  MEMB      67              0.0000000000
      9813       119  POPC      H4Y           -11.7365844410      -21.6127129530      -13.3009206586  MEMB      67              0.0000000000
      9814       119  POPC      C35           -11.4588865729      -19.7778126342      -12.1842918402  MEMB      67              0.0000000000
      9815       119  POPC      H5X           -12.5389287486      -19.5607671053      -12.0448397112  MEMB      67              0.0000000000
      9816       119  POPC      H5Y           -10.9270261474      -18.8057601981      -12.3002836795  MEMB      67              0.0000000000
      9817       119  POPC      C36           -10.9927350984      -20.4736340602      -10.9118212123  MEMB      67              0.0000000000
      9818       119  POPC      H6X            -9.8837002683      -20.5561785718      -10.9001858039  MEMB      67              0.0000000000
      9819       119  POPC      H6Y           -11.4234484237      -21.5004787065      -10.8727168824  MEMB      67              0.0000000000
      9820       119  POPC      C37           -11.5104942731      -19.6727115774       -9.7143892502  MEMB      67              0.0000000000
      9821       119  POPC      H7X           -12.6236254389      -19.6591620827       -9.7654782429  MEMB      67              0.0000000000
      9822       119  POPC      H7Y           -11.1539530716      -18.6213158521       -9.7952190676  MEMB      67              0.0000000000
      9823       119  POPC      C38           -11.1016366619      -20.2517895015       -8.3705071628  MEMB      67              0.0000000000
      9824       119  POPC      H8X           -10.0258629691      -20.0208263346       -8.1929427870  MEMB      67              0.0000000000
      9825       119  POPC      H8Y           -11.2161612202      -21.3590448232       -8.4008318092  MEMB      67              0.0000000000
      9826       119  POPC      C39           -11.9555383937      -19.7136111163       -7.2150647612  MEMB      67              0.0000000000
      9827       119  POPC      H9X           -13.0004143885      -20.0832983856       -7.3165565762  MEMB      67              0.0000000000
      9828       119  POPC      H9Y           -11.9695650178      -18.6031741803       -7.2519586013  MEMB      67              0.0000000000
      9829       119  POPC      C310          -11.3716639265      -20.1783833024       -5.8868500145  MEMB      67              0.0000000000
      9830       119  POPC      H10X          -10.3393182688      -19.7790751790       -5.8282314865  MEMB      67              0.0000000000
      9831       119  POPC      H10Y          -11.3106938212      -21.2918563149       -5.9219066058  MEMB      67              0.0000000000
      9832       119  POPC      C311          -12.1258066461      -19.8005333568       -4.6064172343  MEMB      67              0.0000000000
      9833       119  POPC      H11X          -11.4800572179      -20.1042178532       -3.7487346626  MEMB      67              0.0000000000
      9834       119  POPC      H11Y          -13.0508798846      -20.4146681253       -4.5444542159  MEMB      67              0.0000000000
      9835       119  POPC      C312          -12.4945074034      -18.3150003549       -4.4282091019  MEMB      67              0.0000000000
      9836       119  POPC      H12X          -12.0231649764      -17.6829586558       -5.2093236210  MEMB      67              0.0000000000
      9837       119  POPC      H12Y          -12.0930222180      -17.9962516923       -3.4411396654  MEMB      67              0.0000000000
      9838       119  POPC      C313          -14.0093750455      -18.1092934325       -4.4149177487  MEMB      67              0.0000000000
      9839       119  POPC      H13X          -14.4454876450      -18.7767841812       -3.6397333617  MEMB      67              0.0000000000
      9840       119  POPC      H13Y          -14.3797041385      -18.4726498051       -5.3963775783  MEMB      67              0.0000000000
      9841       119  POPC      C314          -14.5423239046      -16.6779770837       -4.1898189732  MEMB      67              0.0000000000
      9842       119  POPC      H14X          -15.5820655650      -16.7819629511       -3.8033768718  MEMB      67              0.0000000000
      9843       119  POPC      H14Y          -14.6241955690      -16.1801830291       -5.1779954736  MEMB      67              0.0000000000
      9844       119  POPC      C315          -13.7557136047      -15.7259421398       -3.2668676009  MEMB      67              0.0000000000
      9845       119  POPC      H15X          -13.3182093628      -14.9285968466       -3.9124380722  MEMB      67              0.0000000000
      9846       119  POPC      H15Y          -12.9007063388      -16.2349733411       -2.7768467527  MEMB      67              0.0000000000
      9847       119  POPC      C316          -14.6104891491      -15.0589564931       -2.1803076944  MEMB      67              0.0000000000
      9848       119  POPC      H16X          -15.5870340912      -14.7323384018       -2.5953049734  MEMB      67              0.0000000000
      9849       119  POPC      H16Y          -14.0853538216      -14.1669621901       -1.7739288221  MEMB      67              0.0000000000
      9850       119  POPC      H16Z          -14.8048853032      -15.7620633019       -1.3411084277  MEMB      67              0.0000000000
      9851       120  POPC      N              18.4854209765       13.2630610951      -18.8193101908  MEMB      68              0.0000000000
      9852       120  POPC      C12            17.6019197927       13.5368290286      -20.0419840373  MEMB      68              0.0000000000
      9853       120  POPC      H12A           16.9262231569       12.6901361726      -20.1454520386  MEMB      68              0.0000000000
      9854       120  POPC      H12B           18.1959264629       13.6005532440      -20.9482583348  MEMB      68              0.0000000000
      9855       120  POPC      C13            19.6598627100       14.1885679245      -18.7765013715  MEMB      68              0.0000000000
      9856       120  POPC      H13A           20.2822620898       14.0497588604      -19.6512043873  MEMB      68              0.0000000000
      9857       120  POPC      H13B           19.3299733467       15.2257141625      -18.7343125137  MEMB      68              0.0000000000
      9858       120  POPC      H13C           20.2792552472       13.9714134337      -17.9116426828  MEMB      68              0.0000000000
      9859       120  POPC      C14            17.6566539846       13.4683971561      -17.5957398232  MEMB      68              0.0000000000
      9860       120  POPC      H14A           17.4290823361       14.5278885842      -17.4771316729  MEMB      68              0.0000000000
      9861       120  POPC      H14B           16.7090133804       12.9497648565      -17.6946830317  MEMB      68              0.0000000000
      9862       120  POPC      H14C           18.1531460806       13.1001645418      -16.7066473119  MEMB      68              0.0000000000
      9863       120  POPC      C15            18.9951845132       11.8539989098      -18.7564654244  MEMB      68              0.0000000000
      9864       120  POPC      H15A           19.8352385004       11.6934264562      -19.4292195261  MEMB      68              0.0000000000
      9865       120  POPC      H15B           18.2155012756       11.1253816523      -18.9349821402  MEMB      68              0.0000000000
      9866       120  POPC      H15C           19.4113066340       11.6622553789      -17.7728030149  MEMB      68              0.0000000000
      9867       120  POPC      C11            16.6931682677       14.8093973947      -20.0565373417  MEMB      68              0.0000000000
      9868       120  POPC      H11A           16.0499283317       14.8254725138      -19.1457491890  MEMB      68              0.0000000000
      9869       120  POPC      H11B           16.0031580155       14.6943063394      -20.9230230613  MEMB      68              0.0000000000
      9870       120  POPC      P              16.8485162543       17.3852374823      -19.6649276234  MEMB      68              0.0000000000
      9871       120  POPC      O13            15.4270947451       17.5546939018      -20.0728775442  MEMB      68              0.0000000000
      9872       120  POPC      O14            17.7846622448       18.4792779343      -20.0088145920  MEMB      68              0.0000000000
      9873       120  POPC      O12            17.4332516383       16.0224206062      -20.2369165979  MEMB      68              0.0000000000
      9874       120  POPC      O11            16.8906350599       17.0936068332      -18.1102537803  MEMB      68              0.0000000000
      9875       120  POPC      C1             17.1061255575       18.2200289945      -17.2543210381  MEMB      68              0.0000000000
      9876       120  POPC      HA             16.3680343966       19.0358500536      -17.4498771315  MEMB      68              0.0000000000
      9877       120  POPC      HB             18.1237266224       18.6472100396      -17.4028807513  MEMB      68              0.0000000000
      9878       120  POPC      C2             16.9332176135       17.7780071370      -15.7874087592  MEMB      68              0.0000000000
      9879       120  POPC      HS             17.1803407361       18.6401198646      -15.1293818809  MEMB      68              0.0000000000
      9880       120  POPC      O21            17.7321877763       16.6642265197      -15.4042707631  MEMB      68              0.0000000000
      9881       120  POPC      C21            18.9737262479       16.4950482878      -15.7277019904  MEMB      68              0.0000000000
      9882       120  POPC      O22            19.7289586255       17.2392943146      -16.3266238578  MEMB      68              0.0000000000
      9883       120  POPC      C22            19.3478104630       15.1308145970      -15.1441266158  MEMB      68              0.0000000000
      9884       120  POPC      H2R            19.5046456359       14.4435242079      -15.9954727860  MEMB      68              0.0000000000
      9885       120  POPC      H2S            18.5133329807       14.7380702069      -14.5267116939  MEMB      68              0.0000000000
      9886       120  POPC      C3             15.4499424278       17.3473483389      -15.5247907137  MEMB      68              0.0000000000
      9887       120  POPC      HX             15.1383654270       16.7864421590      -16.4341366578  MEMB      68              0.0000000000
      9888       120  POPC      HY             14.7972590115       18.2392354749      -15.4335738303  MEMB      68              0.0000000000
      9889       120  POPC      O31            15.2633807519       16.4481438557      -14.4076961802  MEMB      68              0.0000000000
      9890       120  POPC      C31            15.7137966329       16.9144194281      -13.2587577737  MEMB      68              0.0000000000
      9891       120  POPC      O32            16.0756119065       18.0590235266      -13.0491502799  MEMB      68              0.0000000000
      9892       120  POPC      C32            15.6780135056       15.8060970598      -12.2053248910  MEMB      68              0.0000000000
      9893       120  POPC      H2X            16.0215594462       14.8637437727      -12.6685001857  MEMB      68              0.0000000000
      9894       120  POPC      H2Y            14.6289013345       15.6681789795      -11.8731433739  MEMB      68              0.0000000000
      9895       120  POPC      C23            20.6565319202       15.1798596146      -14.3366519580  MEMB      68              0.0000000000
      9896       120  POPC      H3R            21.4119941004       15.8092157085      -14.8590441249  MEMB      68              0.0000000000
      9897       120  POPC      H3S            21.0496787841       14.1442739983      -14.3211727926  MEMB      68              0.0000000000
      9898       120  POPC      C24            20.5192598287       15.6013513689      -12.8677531193  MEMB      68              0.0000000000
      9899       120  POPC      H4R            20.0107601545       14.7855105434      -12.3055089021  MEMB      68              0.0000000000
      9900       120  POPC      H4S            19.8948699062       16.5164415010      -12.7711048880  MEMB      68              0.0000000000
      9901       120  POPC      C25            21.9102250495       15.8510256210      -12.2515042714  MEMB      68              0.0000000000
      9902       120  POPC      H5R            22.2795583823       16.8434030659      -12.6028285891  MEMB      68              0.0000000000
      9903       120  POPC      H5S            22.6044380278       15.0818615087      -12.6635846145  MEMB      68              0.0000000000
      9904       120  POPC      C26            21.9496172623       15.7525709623      -10.7147439121  MEMB      68              0.0000000000
      9905       120  POPC      H6R            22.9925621007       15.7093879200      -10.3438461691  MEMB      68              0.0000000000
      9906       120  POPC      H6S            21.4875618308       14.7896377711      -10.3993522028  MEMB      68              0.0000000000
      9907       120  POPC      C27            21.2537297022       16.9231595447      -10.0050532282  MEMB      68              0.0000000000
      9908       120  POPC      H7R            20.3160461392       16.5334029003       -9.5586964692  MEMB      68              0.0000000000
      9909       120  POPC      H7S            20.9931249491       17.6800579962      -10.7786707855  MEMB      68              0.0000000000
      9910       120  POPC      C28            22.0941902669       17.6588813614       -8.9383540830  MEMB      68              0.0000000000
      9911       120  POPC      H8R            21.5373719893       18.5729302671       -8.6322152504  MEMB      68              0.0000000000
      9912       120  POPC      H8S            23.0151474162       18.0333553222       -9.4332510061  MEMB      68              0.0000000000
      9913       120  POPC      C29            22.4575961282       16.8243622777       -7.7318505568  MEMB      68              0.0000000000
      9914       120  POPC      H91            23.2518358164       16.0853271733       -7.9220833156  MEMB      68              0.0000000000
      9915       120  POPC      C210           21.9077934392       16.8711513027       -6.4975100293  MEMB      68              0.0000000000
      9916       120  POPC      H101           22.3361257864       16.2351177153       -5.7124618727  MEMB      68              0.0000000000
      9917       120  POPC      C211           20.7910870489       17.7643520028       -6.0136776195  MEMB      68              0.0000000000
      9918       120  POPC      H11R           20.3416437969       18.2878971585       -6.8823234622  MEMB      68              0.0000000000
      9919       120  POPC      H11S           21.1671513569       18.5643142109       -5.3465402648  MEMB      68              0.0000000000
      9920       120  POPC      C212           19.6133388867       17.0452697505       -5.3100245956  MEMB      68              0.0000000000
      9921       120  POPC      H12R           19.2668769602       16.2270963066       -5.9798908101  MEMB      68              0.0000000000
      9922       120  POPC      H12S           18.7750476785       17.7662983460       -5.2277079019  MEMB      68              0.0000000000
      9923       120  POPC      C213           19.8131119939       16.4723570245       -3.8931919680  MEMB      68              0.0000000000
      9924       120  POPC      H13R           20.8832283799       16.3462059705       -3.6363255092  MEMB      68              0.0000000000
      9925       120  POPC      H13S           19.3563371936       15.4617829314       -3.9445755197  MEMB      68              0.0000000000
      9926       120  POPC      C214           19.0471771345       17.2251294369       -2.7824857707  MEMB      68              0.0000000000
      9927       120  POPC      H14R           17.9945378215       17.3850266522       -3.1046677739  MEMB      68              0.0000000000
      9928       120  POPC      H14S           19.5054459977       18.2316869275       -2.6442021396  MEMB      68              0.0000000000
      9929       120  POPC      C215           19.0379987312       16.5125066613       -1.4120516100  MEMB      68              0.0000000000
      9930       120  POPC      H15R           18.3840629679       17.0762396172       -0.7090462314  MEMB      68              0.0000000000
      9931       120  POPC      H15S           20.0706915524       16.5858091136       -1.0176512591  MEMB      68              0.0000000000
      9932       120  POPC      C216           18.5965835759       15.0328787753       -1.3848846615  MEMB      68              0.0000000000
      9933       120  POPC      H16R           18.9263495897       14.4888310024       -2.2910336998  MEMB      68              0.0000000000
      9934       120  POPC      H16S           17.4854269702       14.9779879711       -1.3501459562  MEMB      68              0.0000000000
      9935       120  POPC      C217           19.1876902318       14.2432223670       -0.2055116580  MEMB      68              0.0000000000
      9936       120  POPC      H17R           18.7903849862       13.2020258125       -0.2396762996  MEMB      68              0.0000000000
      9937       120  POPC      H17S           18.8328570499       14.7072344403        0.7316365637  MEMB      68              0.0000000000
      9938       120  POPC      C218           20.7183470200       14.2022068686       -0.1738578464  MEMB      68              0.0000000000
      9939       120  POPC      H18R           21.0901415795       13.4576374322        0.5625094210  MEMB      68              0.0000000000
      9940       120  POPC      H18S           21.1445660820       15.1915904667        0.0877452181  MEMB      68              0.0000000000
      9941       120  POPC      H18T           21.1078760116       13.9426726342       -1.1758804525  MEMB      68              0.0000000000
      9942       120  POPC      C33            16.5893432388       16.2000569810      -11.0232807243  MEMB      68              0.0000000000
      9943       120  POPC      H3X            16.3570336588       17.2419893918      -10.7029352329  MEMB      68              0.0000000000
      9944       120  POPC      H3Y            17.6482416889       16.1894642993      -11.3706002894  MEMB      68              0.0000000000
      9945       120  POPC      C34            16.4591475780       15.3124289853       -9.7832573402  MEMB      68              0.0000000000
      9946       120  POPC      H4X            15.4775511954       14.7888051975       -9.7669328757  MEMB      68              0.0000000000
      9947       120  POPC      H4Y            16.4899591228       15.9694448370       -8.8837743440  MEMB      68              0.0000000000
      9948       120  POPC      C35            17.6125669362       14.3080527190       -9.6970870379  MEMB      68              0.0000000000
      9949       120  POPC      H5X            18.5883586313       14.8450240847       -9.6929757898  MEMB      68              0.0000000000
      9950       120  POPC      H5Y            17.5785312144       13.6673455887      -10.6081483803  MEMB      68              0.0000000000
      9951       120  POPC      C36            17.5061316111       13.4118314007       -8.4655703193  MEMB      68              0.0000000000
      9952       120  POPC      H6X            18.1517517858       12.5180159394       -8.6093622867  MEMB      68              0.0000000000
      9953       120  POPC      H6Y            16.4479937372       13.0715841841       -8.3772415133  MEMB      68              0.0000000000
      9954       120  POPC      C37            17.9417614192       14.0627875340       -7.1502123015  MEMB      68              0.0000000000
      9955       120  POPC      H7X            17.6856912518       15.1439571339       -7.1325638657  MEMB      68              0.0000000000
      9956       120  POPC      H7Y            19.0447699789       13.9877455869       -7.0519127462  MEMB      68              0.0000000000
      9957       120  POPC      C38            17.2734485856       13.3610953171       -5.9685862740  MEMB      68              0.0000000000
      9958       120  POPC      H8X            17.9413792071       13.3799383485       -5.0776890210  MEMB      68              0.0000000000
      9959       120  POPC      H8Y            17.0857007708       12.2954348584       -6.2280093870  MEMB      68              0.0000000000
      9960       120  POPC      C39            15.9614953781       14.0485894193       -5.6091439165  MEMB      68              0.0000000000
      9961       120  POPC      H9X            15.1999518739       13.2908402154       -5.3175202680  MEMB      68              0.0000000000
      9962       120  POPC      H9Y            15.5457210366       14.5938973448       -6.4876790610  MEMB      68              0.0000000000
      9963       120  POPC      C310           16.1736623723       15.0179012309       -4.4461093279  MEMB      68              0.0000000000
      9964       120  POPC      H10X           17.0212056392       15.7072647575       -4.6521313309  MEMB      68              0.0000000000
      9965       120  POPC      H10Y           16.4345003107       14.4115268196       -3.5482574399  MEMB      68              0.0000000000
      9966       120  POPC      C311           14.8927534442       15.7971524094       -4.1936049490  MEMB      68              0.0000000000
      9967       120  POPC      H11X           14.0614861100       15.1147121367       -4.4943668090  MEMB      68              0.0000000000
      9968       120  POPC      H11Y           14.8328548691       16.6931110788       -4.8474182257  MEMB      68              0.0000000000
      9969       120  POPC      C312           14.6525508712       16.1687784548       -2.7313701809  MEMB      68              0.0000000000
      9970       120  POPC      H12X           15.1197418206       17.1537039812       -2.5169691506  MEMB      68              0.0000000000
      9971       120  POPC      H12Y           15.1257152393       15.4225944724       -2.0533156715  MEMB      68              0.0000000000
      9972       120  POPC      C313           13.1422815838       16.1923856852       -2.4660981344  MEMB      68              0.0000000000
      9973       120  POPC      H13X           12.8349671980       15.2058314806       -2.0527497097  MEMB      68              0.0000000000
      9974       120  POPC      H13Y           12.6111870694       16.3080818224       -3.4401911789  MEMB      68              0.0000000000
      9975       120  POPC      C314           12.6804983000       17.3432607013       -1.5701780964  MEMB      68              0.0000000000
      9976       120  POPC      H14X           11.5682942450       17.2996793628       -1.5025434020  MEMB      68              0.0000000000
      9977       120  POPC      H14Y           12.9470749669       18.3109210708       -2.0503913971  MEMB      68              0.0000000000
      9978       120  POPC      C315           13.2389719174       17.2806456548       -0.1451865318  MEMB      68              0.0000000000
      9979       120  POPC      H15X           12.8201015642       18.1421661341        0.4223774440  MEMB      68              0.0000000000
      9980       120  POPC      H15Y           14.3473230277       17.3999381984       -0.1650575218  MEMB      68              0.0000000000
      9981       120  POPC      C316           12.8724233469       15.9773833706        0.5709181508  MEMB      68              0.0000000000
      9982       120  POPC      H16X           12.5466299793       16.1751356550        1.6132069868  MEMB      68              0.0000000000
      9983       120  POPC      H16Y           13.7364758198       15.2794338787        0.5889919797  MEMB      68              0.0000000000
      9984       120  POPC      H16Z           12.0354714426       15.4714855156        0.0419790065  MEMB      68              0.0000000000
      9985       121  POPC      N              12.0161387712       19.3275214523      -19.0576023597  MEMB      69              0.0000000000
      9986       121  POPC      C12            12.9861388361       20.4827085586      -18.8638844199  MEMB      69              0.0000000000
      9987       121  POPC      H12A           13.9883615526       20.1123475180      -19.0566230521  MEMB      69              0.0000000000
      9988       121  POPC      H12B           12.9523120319       20.8524858279      -17.8486448406  MEMB      69              0.0000000000
      9989       121  POPC      C13            12.2870275841       18.7613530329      -20.4182523439  MEMB      69              0.0000000000
      9990       121  POPC      H13A           13.2880400412       18.3130318056      -20.4423157372  MEMB      69              0.0000000000
      9991       121  POPC      H13B           11.5218398269       18.0498875922      -20.7224036104  MEMB      69              0.0000000000
      9992       121  POPC      H13C           12.2748827564       19.5696937666      -21.1397003432  MEMB      69              0.0000000000
      9993       121  POPC      C14            12.2293894668       18.2291709990      -18.0729618980  MEMB      69              0.0000000000
      9994       121  POPC      H14A           11.4756284692       17.4597397170      -18.2035511009  MEMB      69              0.0000000000
      9995       121  POPC      H14B           13.2046021862       17.7674550596      -18.2311151613  MEMB      69              0.0000000000
      9996       121  POPC      H14C           12.1696500962       18.5750245934      -17.0499177319  MEMB      69              0.0000000000
      9997       121  POPC      C15            10.5952525231       19.8093024671      -19.0337057191  MEMB      69              0.0000000000
      9998       121  POPC      H15A           10.3124103284       20.2371691665      -18.0831314019  MEMB      69              0.0000000000
      9999       121  POPC      H15B            9.9076155890       19.0454425508      -19.3604376695  MEMB      69              0.0000000000
     10000       121  POPC      H15C           10.5277972044       20.6497924584      -19.7360969239  MEMB      69              0.0000000000
     10001       121  POPC      C11            12.7822776339       21.7134247282      -19.7782986972  MEMB      69              0.0000000000
     10002       121  POPC      H11A           12.7911299141       21.4154220030      -20.8462644253  MEMB      69              0.0000000000
     10003       121  POPC      H11B           13.6528820038       22.3952537943      -19.6214032725  MEMB      69              0.0000000000
     10004       121  POPC      P              11.4363231526       23.8530701161      -19.0700281550  MEMB      69              0.0000000000
     10005       121  POPC      O13            10.0011842745       24.2141236470      -19.0575935154  MEMB      69              0.0000000000
     10006       121  POPC      O14            12.3227624082       24.7130679415      -19.8870463126  MEMB      69              0.0000000000
     10007       121  POPC      O12            11.5418206915       22.3473366264      -19.5298200971  MEMB      69              0.0000000000
     10008       121  POPC      O11            11.9977884049       23.7715820853      -17.5773399728  MEMB      69              0.0000000000
     10009       121  POPC      C1             11.2864858717       23.0212233718      -16.5903368580  MEMB      69              0.0000000000
     10010       121  POPC      HA             12.0242674367       22.5648454492      -15.8969355880  MEMB      69              0.0000000000
     10011       121  POPC      HB             10.6884124172       22.1851063586      -17.0244031254  MEMB      69              0.0000000000
     10012       121  POPC      C2             10.3538881675       23.9355974128      -15.7501394597  MEMB      69              0.0000000000
     10013       121  POPC      HS              9.6180594887       24.3954501042      -16.4521219391  MEMB      69              0.0000000000
     10014       121  POPC      O21            11.1523067567       24.9441344483      -15.0943645456  MEMB      69              0.0000000000
     10015       121  POPC      C21            11.4390834059       26.0255962431      -15.8112445209  MEMB      69              0.0000000000
     10016       121  POPC      O22            10.8760802151       26.4146119322      -16.8166883395  MEMB      69              0.0000000000
     10017       121  POPC      C22            12.6029691798       26.8211139564      -15.1902879187  MEMB      69              0.0000000000
     10018       121  POPC      H2R            12.2242991478       27.2663370728      -14.2477270503  MEMB      69              0.0000000000
     10019       121  POPC      H2S            12.7535954372       27.6531150121      -15.9026379826  MEMB      69              0.0000000000
     10020       121  POPC      C3              9.5198635470       23.1142733524      -14.6965063770  MEMB      69              0.0000000000
     10021       121  POPC      HX              8.7469934217       22.5762406415      -15.2913264553  MEMB      69              0.0000000000
     10022       121  POPC      HY              8.9808664589       23.8451244745      -14.0484515717  MEMB      69              0.0000000000
     10023       121  POPC      O31            10.2771059696       22.1152529840      -13.9585339399  MEMB      69              0.0000000000
     10024       121  POPC      C31            10.1982794597       22.1181563218      -12.6164030161  MEMB      69              0.0000000000
     10025       121  POPC      O32             9.6472641510       22.9735703426      -11.9515590790  MEMB      69              0.0000000000
     10026       121  POPC      C32            10.9060410021       20.8506487186      -12.0880335011  MEMB      69              0.0000000000
     10027       121  POPC      H2X            11.7923609924       20.7279959501      -12.7520519776  MEMB      69              0.0000000000
     10028       121  POPC      H2Y            10.2479920815       19.9772541161      -12.2375351470  MEMB      69              0.0000000000
     10029       121  POPC      C23            13.9451653586       26.0506558898      -14.9400164444  MEMB      69              0.0000000000
     10030       121  POPC      H3R            14.7612603076       26.4520080454      -15.5515336999  MEMB      69              0.0000000000
     10031       121  POPC      H3S            13.8214771217       25.0417797181      -15.3607107763  MEMB      69              0.0000000000
     10032       121  POPC      C24            14.2937306793       26.0865801762      -13.4136828442  MEMB      69              0.0000000000
     10033       121  POPC      H4R            13.3290293786       25.7653549889      -13.0292491147  MEMB      69              0.0000000000
     10034       121  POPC      H4S            14.2979050720       27.1689772065      -13.1654412543  MEMB      69              0.0000000000
     10035       121  POPC      C25            15.6041041217       25.5230194365      -12.6530856063  MEMB      69              0.0000000000
     10036       121  POPC      H5R            15.4204469248       26.2262030581      -11.8002468323  MEMB      69              0.0000000000
     10037       121  POPC      H5S            16.4742874341       26.0228379387      -13.0194952575  MEMB      69              0.0000000000
     10038       121  POPC      C26            16.0143994031       24.3221452141      -11.6182148271  MEMB      69              0.0000000000
     10039       121  POPC      H6R            15.4426262871       24.4065606351      -10.7137771263  MEMB      69              0.0000000000
     10040       121  POPC      H6S            17.0026511326       24.7561109763      -11.3067394480  MEMB      69              0.0000000000
     10041       121  POPC      C27            16.5250005587       22.8036569112      -11.6105871897  MEMB      69              0.0000000000
     10042       121  POPC      H7R            16.8223880521       22.6413101078      -10.5497558849  MEMB      69              0.0000000000
     10043       121  POPC      H7S            17.4889557088       22.7251685386      -12.1352074310  MEMB      69              0.0000000000
     10044       121  POPC      C28            15.7338970736       21.4542467293      -11.8595544805  MEMB      69              0.0000000000
     10045       121  POPC      H8R            16.4974198921       20.9479110575      -12.5293196654  MEMB      69              0.0000000000
     10046       121  POPC      H8S            14.8746045951       21.5170711308      -12.5077346612  MEMB      69              0.0000000000
     10047       121  POPC      C29            15.3821989127       20.3417326441      -10.8663549119  MEMB      69              0.0000000000
     10048       121  POPC      H91            15.6150790620       19.3711060175      -11.2815268403  MEMB      69              0.0000000000
     10049       121  POPC      C210           14.8073908779       20.2618291500       -9.6264733352  MEMB      69              0.0000000000
     10050       121  POPC      H101           14.7941921196       19.2610281962       -9.1884001545  MEMB      69              0.0000000000
     10051       121  POPC      C211           14.3456943033       21.3040208760       -8.6392945465  MEMB      69              0.0000000000
     10052       121  POPC      H11R           13.8884707547       20.7485101592       -7.7741857844  MEMB      69              0.0000000000
     10053       121  POPC      H11S           13.5170849405       21.9224349654       -9.0375772399  MEMB      69              0.0000000000
     10054       121  POPC      C212           15.4763441156       22.1470135573       -8.0710146292  MEMB      69              0.0000000000
     10055       121  POPC      H12R           15.7054718421       22.9583182871       -8.7678363418  MEMB      69              0.0000000000
     10056       121  POPC      H12S           16.4206464162       21.5685554193       -8.0201123136  MEMB      69              0.0000000000
     10057       121  POPC      C213           15.1970498933       22.6450515295       -6.6511708865  MEMB      69              0.0000000000
     10058       121  POPC      H13R           16.0623343556       23.2316082963       -6.2751621911  MEMB      69              0.0000000000
     10059       121  POPC      H13S           15.1243033535       21.7169935662       -6.0398935818  MEMB      69              0.0000000000
     10060       121  POPC      C214           13.8867690286       23.4077401975       -6.4310284545  MEMB      69              0.0000000000
     10061       121  POPC      H14R           13.0711271706       22.9345375807       -7.0227176687  MEMB      69              0.0000000000
     10062       121  POPC      H14S           13.9755449195       24.4650579108       -6.7454040271  MEMB      69              0.0000000000
     10063       121  POPC      C215           13.5003608183       23.3497831520       -4.9575623235  MEMB      69              0.0000000000
     10064       121  POPC      H15R           13.9952817663       24.1679731174       -4.3897044590  MEMB      69              0.0000000000
     10065       121  POPC      H15S           13.8916503998       22.3840846210       -4.5651695883  MEMB      69              0.0000000000
     10066       121  POPC      C216           11.9941797210       23.3543671032       -4.7079598520  MEMB      69              0.0000000000
     10067       121  POPC      H16R           11.5509234385       22.4569439559       -5.1956732514  MEMB      69              0.0000000000
     10068       121  POPC      H16S           11.5233139525       24.2486396402       -5.1722560077  MEMB      69              0.0000000000
     10069       121  POPC      C217           11.7162927223       23.3227778652       -3.2020522406  MEMB      69              0.0000000000
     10070       121  POPC      H17R           10.6191308912       23.2964474916       -3.0254363790  MEMB      69              0.0000000000
     10071       121  POPC      H17S           12.0891926151       24.2856088611       -2.7900029144  MEMB      69              0.0000000000
     10072       121  POPC      C218           12.3957103438       22.1541945236       -2.4665983086  MEMB      69              0.0000000000
     10073       121  POPC      H18R           12.1426756380       22.1543344608       -1.3872743143  MEMB      69              0.0000000000
     10074       121  POPC      H18S           13.5017455722       22.2166556500       -2.5471021257  MEMB      69              0.0000000000
     10075       121  POPC      H18T           12.0725464886       21.1825485521       -2.8984995583  MEMB      69              0.0000000000
     10076       121  POPC      C33            11.4835721411       20.8808022994      -10.6422638670  MEMB      69              0.0000000000
     10077       121  POPC      H3X            11.8435885843       21.8866932422      -10.3533061998  MEMB      69              0.0000000000
     10078       121  POPC      H3Y            12.3729222163       20.2097784233      -10.6634699847  MEMB      69              0.0000000000
     10079       121  POPC      C34            10.6179345256       20.3912381665       -9.4803920442  MEMB      69              0.0000000000
     10080       121  POPC      H4X            11.3034992254       20.3192468466       -8.5979872979  MEMB      69              0.0000000000
     10081       121  POPC      H4Y            10.2106770373       19.3743754581       -9.6569016193  MEMB      69              0.0000000000
     10082       121  POPC      C35             9.5259457007       21.3932458197       -9.1033821127  MEMB      69              0.0000000000
     10083       121  POPC      H5X             8.6289166718       21.2020489612       -9.7335964637  MEMB      69              0.0000000000
     10084       121  POPC      H5Y             9.8817485647       22.4250744789       -9.3302597113  MEMB      69              0.0000000000
     10085       121  POPC      C36             9.1639880389       21.3339187905       -7.6138882572  MEMB      69              0.0000000000
     10086       121  POPC      H6X             8.3313900044       22.0486866741       -7.4352975457  MEMB      69              0.0000000000
     10087       121  POPC      H6Y            10.0311530655       21.6601093955       -6.9960280008  MEMB      69              0.0000000000
     10088       121  POPC      C37             8.7164025899       19.9303355787       -7.1915202549  MEMB      69              0.0000000000
     10089       121  POPC      H7X             9.5776618199       19.2296706039       -7.1770701499  MEMB      69              0.0000000000
     10090       121  POPC      H7Y             8.0176721153       19.5781413644       -7.9884988227  MEMB      69              0.0000000000
     10091       121  POPC      C38             7.9411025002       19.8893877393       -5.8688952373  MEMB      69              0.0000000000
     10092       121  POPC      H8X             7.2299436402       19.0339793649       -5.9490483815  MEMB      69              0.0000000000
     10093       121  POPC      H8Y             7.3287890457       20.8108985284       -5.7613416787  MEMB      69              0.0000000000
     10094       121  POPC      C39             8.7780116671       19.6488853385       -4.6007978501  MEMB      69              0.0000000000
     10095       121  POPC      H9X             9.7231083733       19.1166304697       -4.8409711804  MEMB      69              0.0000000000
     10096       121  POPC      H9Y             8.1854395356       18.9771270080       -3.9373020238  MEMB      69              0.0000000000
     10097       121  POPC      C310            9.0697719111       20.9328454565       -3.8116947506  MEMB      69              0.0000000000
     10098       121  POPC      H10X            8.2328368026       21.6542147895       -3.9465078445  MEMB      69              0.0000000000
     10099       121  POPC      H10Y            9.9747606112       21.4004974566       -4.2472218295  MEMB      69              0.0000000000
     10100       121  POPC      C311            9.2540651826       20.7053411745       -2.3002827857  MEMB      69              0.0000000000
     10101       121  POPC      H11X            9.8042499846       21.5755915510       -1.8773761377  MEMB      69              0.0000000000
     10102       121  POPC      H11Y            9.8563794005       19.7926342776       -2.1075946561  MEMB      69              0.0000000000
     10103       121  POPC      C312            7.9109077054       20.6453727022       -1.5650352012  MEMB      69              0.0000000000
     10104       121  POPC      H12X            7.3388910850       19.7466448317       -1.8827262216  MEMB      69              0.0000000000
     10105       121  POPC      H12Y            7.3431096342       21.5436314834       -1.8971286018  MEMB      69              0.0000000000
     10106       121  POPC      C313            8.0256801871       20.6776546739       -0.0352266072  MEMB      69              0.0000000000
     10107       121  POPC      H13X            9.0734967919       20.9214750272        0.2460245949  MEMB      69              0.0000000000
     10108       121  POPC      H13Y            7.8099563266       19.6616818932        0.3649839421  MEMB      69              0.0000000000
     10109       121  POPC      C314            7.0880228766       21.7066218052        0.6232900327  MEMB      69              0.0000000000
     10110       121  POPC      H14X            6.5416083382       22.2821212526       -0.1578290616  MEMB      69              0.0000000000
     10111       121  POPC      H14Y            7.6966306269       22.4389152698        1.1978114619  MEMB      69              0.0000000000
     10112       121  POPC      C315            6.0503595827       21.0666606484        1.5546540346  MEMB      69              0.0000000000
     10113       121  POPC      H15X            5.5725492404       20.2145154896        1.0221113688  MEMB      69              0.0000000000
     10114       121  POPC      H15Y            5.2463322142       21.8081079015        1.7610015912  MEMB      69              0.0000000000
     10115       121  POPC      C316            6.6378650963       20.5791981197        2.8808484622  MEMB      69              0.0000000000
     10116       121  POPC      H16X            7.0223104200       21.4347373179        3.4760508334  MEMB      69              0.0000000000
     10117       121  POPC      H16Y            7.4880764908       19.8894385331        2.6996961272  MEMB      69              0.0000000000
     10118       121  POPC      H16Z            5.8707900165       20.0462077823        3.4799902278  MEMB      69              0.0000000000
     10119       122  POPC      N             -24.7162989400       -3.7218667100      -19.7973049687  MEMB      70              0.0000000000
     10120       122  POPC      C12           -24.1598949298       -4.7871169881      -18.8543201150  MEMB      70              0.0000000000
     10121       122  POPC      H12A          -23.7279519607       -4.2669684479      -17.9971958074  MEMB      70              0.0000000000
     10122       122  POPC      H12B          -23.3640504132       -5.3016126077      -19.3602598575  MEMB      70              0.0000000000
     10123       122  POPC      C13           -25.7571450406       -2.9347644350      -19.0640819051  MEMB      70              0.0000000000
     10124       122  POPC      H13A          -26.6268599134       -3.5719706538      -18.8758573860  MEMB      70              0.0000000000
     10125       122  POPC      H13B          -25.3962485655       -2.6099195741      -18.0981371648  MEMB      70              0.0000000000
     10126       122  POPC      H13C          -26.0820588101       -2.0723820842      -19.6196289934  MEMB      70              0.0000000000
     10127       122  POPC      C14           -23.6745957186       -2.7821434362      -20.3112651275  MEMB      70              0.0000000000
     10128       122  POPC      H14A          -22.9434136472       -3.2693752439      -20.9572131061  MEMB      70              0.0000000000
     10129       122  POPC      H14B          -24.1516571938       -2.0128268178      -20.9179353200  MEMB      70              0.0000000000
     10130       122  POPC      H14C          -23.1663101491       -2.2803613728      -19.4996740457  MEMB      70              0.0000000000
     10131       122  POPC      C15           -25.3966866541       -4.3120891905      -20.9873924104  MEMB      70              0.0000000000
     10132       122  POPC      H15A          -24.6896086981       -4.5926020014      -21.7449803377  MEMB      70              0.0000000000
     10133       122  POPC      H15B          -26.0999896403       -3.5936748955      -21.4127472813  MEMB      70              0.0000000000
     10134       122  POPC      H15C          -26.0030461272       -5.1514862126      -20.6640079549  MEMB      70              0.0000000000
     10135       122  POPC      C11           -25.1224631274       -5.8385587402      -18.1962133575  MEMB      70              0.0000000000
     10136       122  POPC      H11A          -25.7536340146       -5.2912236139      -17.4474463906  MEMB      70              0.0000000000
     10137       122  POPC      H11B          -24.4942548260       -6.5289223381      -17.5905991733  MEMB      70              0.0000000000
     10138       122  POPC      P             -27.4818064401       -6.4343679412      -19.1334166518  MEMB      70              0.0000000000
     10139       122  POPC      O13           -28.0357623090       -7.2014304766      -20.2714121416  MEMB      70              0.0000000000
     10140       122  POPC      O14           -27.7919571705       -5.0009476810      -19.0596819541  MEMB      70              0.0000000000
     10141       122  POPC      O12           -25.8869689510       -6.6260470554      -19.1251184102  MEMB      70              0.0000000000
     10142       122  POPC      O11           -27.9602877972       -7.0981337180      -17.8230783185  MEMB      70              0.0000000000
     10143       122  POPC      C1            -27.7986998753       -8.4498210098      -17.4588187278  MEMB      70              0.0000000000
     10144       122  POPC      HA            -26.9640175993       -8.9395891967      -18.0112048619  MEMB      70              0.0000000000
     10145       122  POPC      HB            -28.7484130046       -8.9574892576      -17.7069572723  MEMB      70              0.0000000000
     10146       122  POPC      C2            -27.5577759212       -8.6063700114      -15.9289583357  MEMB      70              0.0000000000
     10147       122  POPC      HS            -28.4101910364       -9.1806174277      -15.4918497467  MEMB      70              0.0000000000
     10148       122  POPC      O21           -27.4419116243       -7.3272461186      -15.2749991000  MEMB      70              0.0000000000
     10149       122  POPC      C21           -28.6090080051       -6.7081643248      -15.1154565581  MEMB      70              0.0000000000
     10150       122  POPC      O22           -29.7000601759       -7.1836633288      -15.3899541908  MEMB      70              0.0000000000
     10151       122  POPC      C22           -28.4311326355       -5.3480803052      -14.4260127621  MEMB      70              0.0000000000
     10152       122  POPC      H2R           -29.1728143862       -5.3404014785      -13.5979564144  MEMB      70              0.0000000000
     10153       122  POPC      H2S           -28.7163158859       -4.5614935604      -15.1538817769  MEMB      70              0.0000000000
     10154       122  POPC      C3            -26.2783527679       -9.4443862820      -15.6528526455  MEMB      70              0.0000000000
     10155       122  POPC      HX            -25.5000272570       -9.0891114441      -16.3611453228  MEMB      70              0.0000000000
     10156       122  POPC      HY            -26.4725289373      -10.5202008890      -15.8679303339  MEMB      70              0.0000000000
     10157       122  POPC      O31           -25.7862429131       -9.2265235060      -14.3224611978  MEMB      70              0.0000000000
     10158       122  POPC      C31           -26.4528393089       -9.8650449096      -13.3591714561  MEMB      70              0.0000000000
     10159       122  POPC      O32           -27.1436472588      -10.8561195381      -13.5257751284  MEMB      70              0.0000000000
     10160       122  POPC      C32           -26.2161921743       -9.1280386451      -12.0390322741  MEMB      70              0.0000000000
     10161       122  POPC      H2X           -26.7368135824       -8.1511179239      -12.0924181301  MEMB      70              0.0000000000
     10162       122  POPC      H2Y           -25.1252356590       -8.9313257460      -11.9675845806  MEMB      70              0.0000000000
     10163       122  POPC      C23           -27.0264650019       -5.0524786140      -13.8429628563  MEMB      70              0.0000000000
     10164       122  POPC      H3R           -26.3881276079       -4.6335328257      -14.6546749490  MEMB      70              0.0000000000
     10165       122  POPC      H3S           -26.5351023301       -5.9853475957      -13.4898071135  MEMB      70              0.0000000000
     10166       122  POPC      C24           -27.0891058741       -4.0646740933      -12.6668854783  MEMB      70              0.0000000000
     10167       122  POPC      H4R           -27.9779531726       -3.4072380186      -12.7906044557  MEMB      70              0.0000000000
     10168       122  POPC      H4S           -26.2026230040       -3.3995712935      -12.6968079355  MEMB      70              0.0000000000
     10169       122  POPC      C25           -27.1387864486       -4.7390161228      -11.2828676140  MEMB      70              0.0000000000
     10170       122  POPC      H5R           -27.9672495444       -5.4797450211      -11.2640772122  MEMB      70              0.0000000000
     10171       122  POPC      H5S           -27.3673688980       -3.9532449068      -10.5276080379  MEMB      70              0.0000000000
     10172       122  POPC      C26           -25.8247979964       -5.4188588146      -10.8517994590  MEMB      70              0.0000000000
     10173       122  POPC      H6R           -25.5146750933       -6.1802445852      -11.5974077486  MEMB      70              0.0000000000
     10174       122  POPC      H6S           -25.9978012979       -5.9402267362       -9.8827443869  MEMB      70              0.0000000000
     10175       122  POPC      C27           -24.6835394748       -4.4098120339      -10.6564213358  MEMB      70              0.0000000000
     10176       122  POPC      H7R           -25.0797270838       -3.6025762387      -10.0005853367  MEMB      70              0.0000000000
     10177       122  POPC      H7S           -24.4126713073       -3.9660035312      -11.6325121635  MEMB      70              0.0000000000
     10178       122  POPC      C28           -23.4200456141       -4.9709561937       -9.9849446349  MEMB      70              0.0000000000
     10179       122  POPC      H8R           -23.7702052674       -5.4978157011       -9.0711721049  MEMB      70              0.0000000000
     10180       122  POPC      H8S           -22.8034806612       -4.1123819260       -9.6334380228  MEMB      70              0.0000000000
     10181       122  POPC      C29           -22.5663954567       -5.8392990197      -10.8840441209  MEMB      70              0.0000000000
     10182       122  POPC      H91           -21.9766379295       -5.2866391665      -11.6319410699  MEMB      70              0.0000000000
     10183       122  POPC      C210          -22.4909505281       -7.1845801637      -10.8615471311  MEMB      70              0.0000000000
     10184       122  POPC      H101          -21.8023720592       -7.7007466379      -11.5490693513  MEMB      70              0.0000000000
     10185       122  POPC      C211          -23.2631504617       -8.0690143883       -9.9191136660  MEMB      70              0.0000000000
     10186       122  POPC      H11R          -23.1748779348       -9.1410015455      -10.2055998752  MEMB      70              0.0000000000
     10187       122  POPC      H11S          -24.3440117317       -7.8137150747      -10.0008625071  MEMB      70              0.0000000000
     10188       122  POPC      C212          -22.8453218717       -7.9118707478       -8.4470381723  MEMB      70              0.0000000000
     10189       122  POPC      H12R          -22.4952026934       -6.8762121890       -8.2431816980  MEMB      70              0.0000000000
     10190       122  POPC      H12S          -21.9840383521       -8.5764127172       -8.2206249338  MEMB      70              0.0000000000
     10191       122  POPC      C213          -24.0149768192       -8.1896380929       -7.4945960050  MEMB      70              0.0000000000
     10192       122  POPC      H13R          -24.1395129894       -9.2920738303       -7.4166553085  MEMB      70              0.0000000000
     10193       122  POPC      H13S          -24.9613970121       -7.7701446142       -7.9055059532  MEMB      70              0.0000000000
     10194       122  POPC      C214          -23.7855694852       -7.5718045458       -6.1139196280  MEMB      70              0.0000000000
     10195       122  POPC      H14R          -24.2009245356       -6.5391040346       -6.0767554025  MEMB      70              0.0000000000
     10196       122  POPC      H14S          -22.6876786809       -7.4828768790       -5.9483643322  MEMB      70              0.0000000000
     10197       122  POPC      C215          -24.3711536704       -8.4227250702       -4.9877805994  MEMB      70              0.0000000000
     10198       122  POPC      H15R          -24.1811093632       -9.5002734211       -5.1963047494  MEMB      70              0.0000000000
     10199       122  POPC      H15S          -25.4721421331       -8.2709427496       -4.9332869631  MEMB      70              0.0000000000
     10200       122  POPC      C216          -23.7185306018       -8.0818095267       -3.6490352171  MEMB      70              0.0000000000
     10201       122  POPC      H16R          -23.8062646853       -6.9959512310       -3.4776041548  MEMB      70              0.0000000000
     10202       122  POPC      H16S          -22.6354055119       -8.3038787448       -3.6973114585  MEMB      70              0.0000000000
     10203       122  POPC      C217          -24.3170021559       -8.8510058913       -2.4786669201  MEMB      70              0.0000000000
     10204       122  POPC      H17R          -23.5755259988       -9.6164140948       -2.1638649240  MEMB      70              0.0000000000
     10205       122  POPC      H17S          -25.2212865517       -9.3809165534       -2.8458124925  MEMB      70              0.0000000000
     10206       122  POPC      C218          -24.7058128834       -7.9820500704       -1.2849629585  MEMB      70              0.0000000000
     10207       122  POPC      H18R          -23.8775534020       -7.2968541421       -1.0134608105  MEMB      70              0.0000000000
     10208       122  POPC      H18S          -24.9515831200       -8.6104223621       -0.4070030181  MEMB      70              0.0000000000
     10209       122  POPC      H18T          -25.6049811799       -7.3771985191       -1.5250033604  MEMB      70              0.0000000000
     10210       122  POPC      C33           -26.6625540771       -9.9324437213      -10.7963425806  MEMB      70              0.0000000000
     10211       122  POPC      H3X           -26.0803374236       -9.5633806298       -9.9205223169  MEMB      70              0.0000000000
     10212       122  POPC      H3Y           -26.3944985045      -11.0028686094      -10.9280904192  MEMB      70              0.0000000000
     10213       122  POPC      C34           -28.1517532865       -9.8064680035      -10.4287679215  MEMB      70              0.0000000000
     10214       122  POPC      H4X           -28.3409384418      -10.4805821470       -9.5608655933  MEMB      70              0.0000000000
     10215       122  POPC      H4Y           -28.7902371516      -10.1620878276      -11.2675602698  MEMB      70              0.0000000000
     10216       122  POPC      C35           -28.5593265972       -8.3806207457      -10.0262824395  MEMB      70              0.0000000000
     10217       122  POPC      H5X           -28.6448428411       -7.7491451696      -10.9381617465  MEMB      70              0.0000000000
     10218       122  POPC      H5Y           -27.7527426664       -7.9525084461       -9.3882858023  MEMB      70              0.0000000000
     10219       122  POPC      C36           -29.8833964398       -8.3238505665       -9.2501620954  MEMB      70              0.0000000000
     10220       122  POPC      H6X           -29.7495099461       -8.8386636513       -8.2720300018  MEMB      70              0.0000000000
     10221       122  POPC      H6Y           -30.6657605315       -8.8792719869       -9.8158872293  MEMB      70              0.0000000000
     10222       122  POPC      C37           -30.3802948934       -6.8898462339       -8.9988471257  MEMB      70              0.0000000000
     10223       122  POPC      H7X           -31.3134915270       -6.9313459098       -8.4006786178  MEMB      70              0.0000000000
     10224       122  POPC      H7Y           -30.6370041113       -6.4250046157       -9.9771844703  MEMB      70              0.0000000000
     10225       122  POPC      C38           -29.3555784047       -5.9994125849       -8.2808193131  MEMB      70              0.0000000000
     10226       122  POPC      H8X           -28.4873353650       -5.8501493174       -8.9599833101  MEMB      70              0.0000000000
     10227       122  POPC      H8Y           -28.9868843716       -6.5115978449       -7.3642356437  MEMB      70              0.0000000000
     10228       122  POPC      C39           -29.9173520916       -4.6241611776       -7.8928448906  MEMB      70              0.0000000000
     10229       122  POPC      H9X           -30.4875877143       -4.7189841650       -6.9420345335  MEMB      70              0.0000000000
     10230       122  POPC      H9Y           -30.6317124243       -4.3085709284       -8.6872158850  MEMB      70              0.0000000000
     10231       122  POPC      C310          -28.8498764535       -3.5209628085       -7.7636299683  MEMB      70              0.0000000000
     10232       122  POPC      H10X          -29.3167805728       -2.5844563859       -7.3845258947  MEMB      70              0.0000000000
     10233       122  POPC      H10Y          -28.4796330605       -3.3032100738       -8.7900852270  MEMB      70              0.0000000000
     10234       122  POPC      C311          -27.6369112866       -3.8806885211       -6.8886985188  MEMB      70              0.0000000000
     10235       122  POPC      H11X          -26.8014936747       -3.1897784562       -7.1243096553  MEMB      70              0.0000000000
     10236       122  POPC      H11Y          -27.2717249516       -4.9024078976       -7.1286553807  MEMB      70              0.0000000000
     10237       122  POPC      C312          -27.8987820212       -3.7670400418       -5.3854122873  MEMB      70              0.0000000000
     10238       122  POPC      H12X          -28.7969875335       -4.3775545490       -5.1369747477  MEMB      70              0.0000000000
     10239       122  POPC      H12Y          -28.1236491782       -2.7127076183       -5.1099625370  MEMB      70              0.0000000000
     10240       122  POPC      C313          -26.7161158098       -4.2869807335       -4.5548074236  MEMB      70              0.0000000000
     10241       122  POPC      H13X          -26.4516494896       -5.3113311151       -4.9018966398  MEMB      70              0.0000000000
     10242       122  POPC      H13Y          -27.0565647336       -4.3628708283       -3.5006561802  MEMB      70              0.0000000000
     10243       122  POPC      C314          -25.4586283239       -3.4018012580       -4.5636032310  MEMB      70              0.0000000000
     10244       122  POPC      H14X          -25.7081618527       -2.4443047661       -4.0559634607  MEMB      70              0.0000000000
     10245       122  POPC      H14Y          -25.1612990951       -3.1646796781       -5.6074995607  MEMB      70              0.0000000000
     10246       122  POPC      C315          -24.2579210224       -4.0496972617       -3.8487657904  MEMB      70              0.0000000000
     10247       122  POPC      H15X          -23.4888984897       -3.2710405182       -3.6462954251  MEMB      70              0.0000000000
     10248       122  POPC      H15Y          -23.7968870719       -4.7938260228       -4.5372109172  MEMB      70              0.0000000000
     10249       122  POPC      C316          -24.6095750726       -4.7699526766       -2.5444997892  MEMB      70              0.0000000000
     10250       122  POPC      H16X          -23.6962315769       -5.1266531260       -2.0232072311  MEMB      70              0.0000000000
     10251       122  POPC      H16Y          -25.2540593537       -5.6465839486       -2.7633508257  MEMB      70              0.0000000000
     10252       122  POPC      H16Z          -25.1842929022       -4.1297884658       -1.8563041422  MEMB      70              0.0000000000
     10253       123  POPC      N              25.5858637248       -7.8318934562      -20.2117690480  MEMB      71              0.0000000000
     10254       123  POPC      C12            26.1453170685       -7.3952963222      -18.8575705300  MEMB      71              0.0000000000
     10255       123  POPC      H12A           26.7441840475       -6.4901867664      -19.0080339747  MEMB      71              0.0000000000
     10256       123  POPC      H12B           26.8205071148       -8.1486555843      -18.4774445467  MEMB      71              0.0000000000
     10257       123  POPC      C13            25.3747805311       -6.5804401766      -21.0155302637  MEMB      71              0.0000000000
     10258       123  POPC      H13A           24.6510411848       -5.9450928690      -20.5016820247  MEMB      71              0.0000000000
     10259       123  POPC      H13B           26.2546238576       -5.9545427214      -21.0672544448  MEMB      71              0.0000000000
     10260       123  POPC      H13C           24.9941596490       -6.7389713400      -22.0171606275  MEMB      71              0.0000000000
     10261       123  POPC      C14            26.5012635288       -8.7535147135      -20.9439059620  MEMB      71              0.0000000000
     10262       123  POPC      H14A           26.5516222150       -9.7311196587      -20.4798838359  MEMB      71              0.0000000000
     10263       123  POPC      H14B           26.1422963579       -8.9305949496      -21.9616460053  MEMB      71              0.0000000000
     10264       123  POPC      H14C           27.5060656080       -8.3613639970      -21.0407917828  MEMB      71              0.0000000000
     10265       123  POPC      C15            24.2424944319       -8.4811373978      -20.0323046189  MEMB      71              0.0000000000
     10266       123  POPC      H15A           23.6054497883       -7.7692579223      -19.5012094324  MEMB      71              0.0000000000
     10267       123  POPC      H15B           24.2839068909       -9.3463661079      -19.3841123551  MEMB      71              0.0000000000
     10268       123  POPC      H15C           23.7496201585       -8.7438198944      -20.9562617591  MEMB      71              0.0000000000
     10269       123  POPC      C11            25.1281331622       -7.0309929868      -17.7361535419  MEMB      71              0.0000000000
     10270       123  POPC      H11A           25.6936239105       -6.6031880551      -16.8720597117  MEMB      71              0.0000000000
     10271       123  POPC      H11B           24.6439871807       -7.9555355701      -17.3544067541  MEMB      71              0.0000000000
     10272       123  POPC      P              24.3698610156       -4.5962608949      -18.2882294620  MEMB      71              0.0000000000
     10273       123  POPC      O13            23.2220389714       -4.0527525981      -19.0528180199  MEMB      71              0.0000000000
     10274       123  POPC      O14            25.7316649144       -4.4034539583      -18.8223514459  MEMB      71              0.0000000000
     10275       123  POPC      O12            24.1018739827       -6.1499263377      -18.1858513643  MEMB      71              0.0000000000
     10276       123  POPC      O11            24.2278722112       -4.1202650093      -16.7997602414  MEMB      71              0.0000000000
     10277       123  POPC      C1             22.8915011909       -4.1167498306      -16.2613417097  MEMB      71              0.0000000000
     10278       123  POPC      HA             22.2999395301       -5.0158120948      -16.5704705716  MEMB      71              0.0000000000
     10279       123  POPC      HB             22.3358033508       -3.2211205990      -16.6175985312  MEMB      71              0.0000000000
     10280       123  POPC      C2             22.9369410189       -4.1430671518      -14.7122820503  MEMB      71              0.0000000000
     10281       123  POPC      HS             21.8984767283       -4.0819155582      -14.3105601979  MEMB      71              0.0000000000
     10282       123  POPC      O21            23.7208410811       -3.0657196055      -14.1828776109  MEMB      71              0.0000000000
     10283       123  POPC      C21            23.2180864375       -1.8612130915      -14.3412862426  MEMB      71              0.0000000000
     10284       123  POPC      O22            22.1828053801       -1.5637496481      -14.9133677990  MEMB      71              0.0000000000
     10285       123  POPC      C22            24.0321802133       -0.8869921709      -13.5064406616  MEMB      71              0.0000000000
     10286       123  POPC      H2R            24.3069388095       -0.0611926615      -14.1873831910  MEMB      71              0.0000000000
     10287       123  POPC      H2S            24.9693843220       -1.3740402005      -13.1680160762  MEMB      71              0.0000000000
     10288       123  POPC      C3             23.5362781549       -5.5030349221      -14.2426351378  MEMB      71              0.0000000000
     10289       123  POPC      HX             24.2101195476       -5.8533207775      -15.0546596317  MEMB      71              0.0000000000
     10290       123  POPC      HY             22.7144543486       -6.2489287694      -14.1610951005  MEMB      71              0.0000000000
     10291       123  POPC      O31            24.3239217001       -5.4498782425      -13.0359852606  MEMB      71              0.0000000000
     10292       123  POPC      C31            23.6570048810       -5.2036775239      -11.9246173542  MEMB      71              0.0000000000
     10293       123  POPC      O32            22.4938674067       -4.8604013172      -11.8351184301  MEMB      71              0.0000000000
     10294       123  POPC      C32            24.5547298608       -5.5153916977      -10.7309027224  MEMB      71              0.0000000000
     10295       123  POPC      H2X            25.1619289337       -4.6277936029      -10.4710150102  MEMB      71              0.0000000000
     10296       123  POPC      H2Y            25.2366039494       -6.3391979522      -11.0322465674  MEMB      71              0.0000000000
     10297       123  POPC      C23            23.1881354519       -0.4311243794      -12.2877219871  MEMB      71              0.0000000000
     10298       123  POPC      H3R            22.2571201450        0.0820712094      -12.6171564759  MEMB      71              0.0000000000
     10299       123  POPC      H3S            23.7612157681        0.3109855599      -11.6987453097  MEMB      71              0.0000000000
     10300       123  POPC      C24            22.8294698825       -1.6226224814      -11.3841399096  MEMB      71              0.0000000000
     10301       123  POPC      H4R            23.5947681405       -2.4158044329      -11.5474516763  MEMB      71              0.0000000000
     10302       123  POPC      H4S            21.8507317576       -2.0496050741      -11.7010739220  MEMB      71              0.0000000000
     10303       123  POPC      C25            22.8197356819       -1.3394804170       -9.8751784701  MEMB      71              0.0000000000
     10304       123  POPC      H5R            22.5769429503       -2.3022585232       -9.3669282569  MEMB      71              0.0000000000
     10305       123  POPC      H5S            22.0177181106       -0.6139617276       -9.6191607217  MEMB      71              0.0000000000
     10306       123  POPC      C26            24.1765211817       -0.8436042066       -9.3566306205  MEMB      71              0.0000000000
     10307       123  POPC      H6R            24.2816223988        0.2367032656       -9.6076015202  MEMB      71              0.0000000000
     10308       123  POPC      H6S            24.9930797966       -1.3844571115       -9.8802888364  MEMB      71              0.0000000000
     10309       123  POPC      C27            24.3316440221       -0.9983908388       -7.8404385092  MEMB      71              0.0000000000
     10310       123  POPC      H7R            23.3584269747       -0.7201816351       -7.3820853486  MEMB      71              0.0000000000
     10311       123  POPC      H7S            25.1017070616       -0.2782705275       -7.4767557962  MEMB      71              0.0000000000
     10312       123  POPC      C28            24.7164601245       -2.4052434811       -7.3535961381  MEMB      71              0.0000000000
     10313       123  POPC      H8R            23.9223074557       -3.1306035276       -7.6330306558  MEMB      71              0.0000000000
     10314       123  POPC      H8S            24.7278748327       -2.3695231931       -6.2408942166  MEMB      71              0.0000000000
     10315       123  POPC      C29            26.0482392696       -2.8652084276       -7.8832793815  MEMB      71              0.0000000000
     10316       123  POPC      H91            26.0215746240       -3.3130025905       -8.8896979982  MEMB      71              0.0000000000
     10317       123  POPC      C210           27.2300724650       -2.7492938987       -7.2565193282  MEMB      71              0.0000000000
     10318       123  POPC      H101           28.1254652391       -3.1363008997       -7.7578072325  MEMB      71              0.0000000000
     10319       123  POPC      C211           27.4922279733       -2.1385336256       -5.9053975335  MEMB      71              0.0000000000
     10320       123  POPC      H11R           26.7142954216       -1.3886757105       -5.6397471040  MEMB      71              0.0000000000
     10321       123  POPC      H11S           28.4537254623       -1.5787288666       -5.9509385138  MEMB      71              0.0000000000
     10322       123  POPC      C212           27.6084083066       -3.1772218849       -4.7731666547  MEMB      71              0.0000000000
     10323       123  POPC      H12R           28.1316960927       -2.7131782883       -3.9103294880  MEMB      71              0.0000000000
     10324       123  POPC      H12S           28.2342034960       -4.0374915125       -5.0959688170  MEMB      71              0.0000000000
     10325       123  POPC      C213           26.2558554499       -3.6762067899       -4.2517410267  MEMB      71              0.0000000000
     10326       123  POPC      H13R           25.8271109860       -4.3969760181       -4.9812480715  MEMB      71              0.0000000000
     10327       123  POPC      H13S           25.5407455056       -2.8274662284       -4.1879428474  MEMB      71              0.0000000000
     10328       123  POPC      C214           26.3499146045       -4.3113989925       -2.8544996109  MEMB      71              0.0000000000
     10329       123  POPC      H14R           25.3651592807       -4.7789596623       -2.6394745548  MEMB      71              0.0000000000
     10330       123  POPC      H14S           26.4959738216       -3.5216401118       -2.0863514919  MEMB      71              0.0000000000
     10331       123  POPC      C215           27.4843845125       -5.3409700122       -2.7163675584  MEMB      71              0.0000000000
     10332       123  POPC      H15R           28.4224612750       -4.8238901574       -2.4227117340  MEMB      71              0.0000000000
     10333       123  POPC      H15S           27.6781161828       -5.7985838735       -3.7099788678  MEMB      71              0.0000000000
     10334       123  POPC      C216           27.1537758821       -6.4726210064       -1.7331893686  MEMB      71              0.0000000000
     10335       123  POPC      H16R           27.4276279317       -7.4535567068       -2.1819339398  MEMB      71              0.0000000000
     10336       123  POPC      H16S           26.0596984423       -6.4867710834       -1.5437071141  MEMB      71              0.0000000000
     10337       123  POPC      C217           27.8470439166       -6.3333798493       -0.3820772235  MEMB      71              0.0000000000
     10338       123  POPC      H17R           27.7314864030       -5.2827867935       -0.0500782214  MEMB      71              0.0000000000
     10339       123  POPC      H17S           28.9325509325       -6.5407702029       -0.5009810713  MEMB      71              0.0000000000
     10340       123  POPC      C218           27.2632298228       -7.2600084191        0.6812813266  MEMB      71              0.0000000000
     10341       123  POPC      H18R           27.3491305139       -8.3126262577        0.3518815093  MEMB      71              0.0000000000
     10342       123  POPC      H18S           26.1917885908       -7.0299631423        0.8661185771  MEMB      71              0.0000000000
     10343       123  POPC      H18T           27.8187893188       -7.1633030161        1.6360063696  MEMB      71              0.0000000000
     10344       123  POPC      C33            23.7115500918       -5.9804532217       -9.5251833182  MEMB      71              0.0000000000
     10345       123  POPC      H3X            22.8024450266       -6.5206229836       -9.8869325785  MEMB      71              0.0000000000
     10346       123  POPC      H3Y            23.3579995320       -5.1028541343       -8.9400990332  MEMB      71              0.0000000000
     10347       123  POPC      C34            24.4550322749       -6.9764907214       -8.6331437285  MEMB      71              0.0000000000
     10348       123  POPC      H4X            24.7691754485       -7.8527604707       -9.2447697292  MEMB      71              0.0000000000
     10349       123  POPC      H4Y            23.7374227754       -7.3567021393       -7.8732663116  MEMB      71              0.0000000000
     10350       123  POPC      C35            25.6851109479       -6.3906417858       -7.9349498758  MEMB      71              0.0000000000
     10351       123  POPC      H5X            25.4056861904       -5.4849308349       -7.3541151910  MEMB      71              0.0000000000
     10352       123  POPC      H5Y            26.4174523002       -6.0733934969       -8.7128573622  MEMB      71              0.0000000000
     10353       123  POPC      C36            26.3538760199       -7.4137141901       -7.0059101090  MEMB      71              0.0000000000
     10354       123  POPC      H6X            27.4435451607       -7.1848112559       -6.9640175385  MEMB      71              0.0000000000
     10355       123  POPC      H6Y            26.2485914423       -8.4318936181       -7.4380428205  MEMB      71              0.0000000000
     10356       123  POPC      C37            25.8678838626       -7.3768573101       -5.5463573687  MEMB      71              0.0000000000
     10357       123  POPC      H7X            26.3475062487       -6.4837408263       -5.0935544887  MEMB      71              0.0000000000
     10358       123  POPC      H7Y            26.2506056284       -8.2696642595       -5.0049081189  MEMB      71              0.0000000000
     10359       123  POPC      C38            24.3562079816       -7.2279773698       -5.3010738676  MEMB      71              0.0000000000
     10360       123  POPC      H8X            23.8084439762       -8.1225622006       -5.6675673922  MEMB      71              0.0000000000
     10361       123  POPC      H8Y            23.9836036100       -6.3413737950       -5.8611513280  MEMB      71              0.0000000000
     10362       123  POPC      C39            24.0533795043       -6.9800752022       -3.8158746414  MEMB      71              0.0000000000
     10363       123  POPC      H9X            23.4164600507       -6.0791841715       -3.6867809737  MEMB      71              0.0000000000
     10364       123  POPC      H9Y            25.0221218938       -6.7812494529       -3.3155437953  MEMB      71              0.0000000000
     10365       123  POPC      C310           23.4103018602       -8.1772387346       -3.1213193874  MEMB      71              0.0000000000
     10366       123  POPC      H10X           24.0399429535       -9.0639287146       -3.3729071331  MEMB      71              0.0000000000
     10367       123  POPC      H10Y           22.3865639698       -8.3527438225       -3.5148459693  MEMB      71              0.0000000000
     10368       123  POPC      C311           23.3992350025       -8.0735766996       -1.5925469158  MEMB      71              0.0000000000
     10369       123  POPC      H11X           24.4286928878       -7.8753040694       -1.2221692649  MEMB      71              0.0000000000
     10370       123  POPC      H11Y           23.0904354785       -9.0602300355       -1.1988139517  MEMB      71              0.0000000000
     10371       123  POPC      C312           22.4342455572       -7.0729509586       -0.9601367778  MEMB      71              0.0000000000
     10372       123  POPC      H12X           21.3915040149       -7.3153473868       -1.2672502482  MEMB      71              0.0000000000
     10373       123  POPC      H12Y           22.6656691512       -6.0425675711       -1.3005780584  MEMB      71              0.0000000000
     10374       123  POPC      C313           22.5454119846       -7.1785671405        0.5697983768  MEMB      71              0.0000000000
     10375       123  POPC      H13X           23.5957964932       -7.0072382846        0.8934736601  MEMB      71              0.0000000000
     10376       123  POPC      H13Y           22.2812130681       -8.2227653123        0.8563393107  MEMB      71              0.0000000000
     10377       123  POPC      C314           21.6142694459       -6.2269348252        1.3182102248  MEMB      71              0.0000000000
     10378       123  POPC      H14X           21.2670133940       -6.7298558239        2.2479174991  MEMB      71              0.0000000000
     10379       123  POPC      H14Y           20.7117191542       -6.0355497398        0.7002674003  MEMB      71              0.0000000000
     10380       123  POPC      C315           22.2781676665       -4.9131888547        1.7548807501  MEMB      71              0.0000000000
     10381       123  POPC      H15X           22.9615541959       -5.1315066459        2.6064547700  MEMB      71              0.0000000000
     10382       123  POPC      H15Y           21.4677154515       -4.2671490327        2.1529458551  MEMB      71              0.0000000000
     10383       123  POPC      C316           23.0672233367       -4.1498434003        0.6853576507  MEMB      71              0.0000000000
     10384       123  POPC      H16X           22.4194950155       -3.8774843730       -0.1734495387  MEMB      71              0.0000000000
     10385       123  POPC      H16Y           23.9100004123       -4.7648552712        0.3039981273  MEMB      71              0.0000000000
     10386       123  POPC      H16Z           23.4925772821       -3.2172442217        1.1123633349  MEMB      71              0.0000000000
     10387       124  POPC      N             -15.0157768887       16.7518033013      -20.0983991292  MEMB      72              0.0000000000
     10388       124  POPC      C12           -14.8214190217       18.0675825096      -20.8511513919  MEMB      72              0.0000000000
     10389       124  POPC      H12A          -15.6807780692       18.2246701586      -21.4949771388  MEMB      72              0.0000000000
     10390       124  POPC      H12B          -13.9737531414       18.0088325306      -21.5259009611  MEMB      72              0.0000000000
     10391       124  POPC      C13           -16.3919924175       16.7158604825      -19.5338644393  MEMB      72              0.0000000000
     10392       124  POPC      H13A          -17.1401246925       16.8119291837      -20.3034550012  MEMB      72              0.0000000000
     10393       124  POPC      H13B          -16.5642089808       15.8278506636      -18.9440522980  MEMB      72              0.0000000000
     10394       124  POPC      H13C          -16.5093843531       17.5904481585      -18.8888163878  MEMB      72              0.0000000000
     10395       124  POPC      C14           -14.8134150571       15.5900498891      -21.0117943943  MEMB      72              0.0000000000
     10396       124  POPC      H14A          -15.4491463867       15.6771601339      -21.8887036119  MEMB      72              0.0000000000
     10397       124  POPC      H14B          -13.7769409371       15.5721939685      -21.3373250177  MEMB      72              0.0000000000
     10398       124  POPC      H14C          -15.1222952085       14.6672961126      -20.5285709647  MEMB      72              0.0000000000
     10399       124  POPC      C15           -14.0586585558       16.7322213429      -18.9415894219  MEMB      72              0.0000000000
     10400       124  POPC      H15A          -14.3563059500       17.5293508569      -18.2483511099  MEMB      72              0.0000000000
     10401       124  POPC      H15B          -13.0476089053       16.9476727720      -19.2783602936  MEMB      72              0.0000000000
     10402       124  POPC      H15C          -14.1071853795       15.8096966148      -18.4010962129  MEMB      72              0.0000000000
     10403       124  POPC      C11           -14.6934723370       19.3274595686      -19.9699848406  MEMB      72              0.0000000000
     10404       124  POPC      H11A          -14.4189746509       20.2086935970      -20.5879823130  MEMB      72              0.0000000000
     10405       124  POPC      H11B          -13.8629180715       19.2356872470      -19.2288995370  MEMB      72              0.0000000000
     10406       124  POPC      P             -16.0635761018       20.2568254573      -17.9558826776  MEMB      72              0.0000000000
     10407       124  POPC      O13           -15.1791197048       21.4162536839      -18.0515107218  MEMB      72              0.0000000000
     10408       124  POPC      O14           -15.8163843792       19.2088457080      -16.9456694867  MEMB      72              0.0000000000
     10409       124  POPC      O12           -15.9557340253       19.5477620884      -19.3624758678  MEMB      72              0.0000000000
     10410       124  POPC      O11           -17.5912087558       20.6225610660      -18.1158365971  MEMB      72              0.0000000000
     10411       124  POPC      C1            -18.5559164641       19.5744580152      -18.2750390302  MEMB      72              0.0000000000
     10412       124  POPC      HA            -18.0823342646       18.5837376783      -18.4500640277  MEMB      72              0.0000000000
     10413       124  POPC      HB            -19.1869036326       19.7931993599      -19.1580422064  MEMB      72              0.0000000000
     10414       124  POPC      C2            -19.4807590703       19.4487990282      -17.0364476850  MEMB      72              0.0000000000
     10415       124  POPC      HS            -20.3215276145       20.1648221479      -17.2198943896  MEMB      72              0.0000000000
     10416       124  POPC      O21           -18.7235713768       19.7948080255      -15.8678162634  MEMB      72              0.0000000000
     10417       124  POPC      C21           -19.4236792629       20.4801673803      -14.9913077806  MEMB      72              0.0000000000
     10418       124  POPC      O22           -20.6377278897       20.6141670648      -15.0185853424  MEMB      72              0.0000000000
     10419       124  POPC      C22           -18.5100086477       21.1235797594      -13.9587727591  MEMB      72              0.0000000000
     10420       124  POPC      H2R           -18.5142690317       22.2144918569      -14.1606352611  MEMB      72              0.0000000000
     10421       124  POPC      H2S           -17.4774465796       20.7402607965      -14.0984115168  MEMB      72              0.0000000000
     10422       124  POPC      C3            -20.0536937789       18.0097869166      -16.8941053793  MEMB      72              0.0000000000
     10423       124  POPC      HX            -20.7649098603       17.8802977183      -17.7326000317  MEMB      72              0.0000000000
     10424       124  POPC      HY            -20.6449592220       17.9147082190      -15.9536660519  MEMB      72              0.0000000000
     10425       124  POPC      O31           -19.0192070183       17.0025094238      -17.0166262903  MEMB      72              0.0000000000
     10426       124  POPC      C31           -18.2467923743       16.8714739587      -15.9173326989  MEMB      72              0.0000000000
     10427       124  POPC      O32           -18.5700840134       17.2221275481      -14.8019032464  MEMB      72              0.0000000000
     10428       124  POPC      C32           -16.9393005850       16.1674668322      -16.3081947612  MEMB      72              0.0000000000
     10429       124  POPC      H2X           -16.2808944093       16.9550284714      -16.7159178203  MEMB      72              0.0000000000
     10430       124  POPC      H2Y           -17.1890624021       15.4413601967      -17.1108523870  MEMB      72              0.0000000000
     10431       124  POPC      C23           -19.0169544808       20.8365455767      -12.5319573086  MEMB      72              0.0000000000
     10432       124  POPC      H3R           -20.0508931645       21.2292489283      -12.3989519681  MEMB      72              0.0000000000
     10433       124  POPC      H3S           -18.3560471959       21.3817458679      -11.8243851900  MEMB      72              0.0000000000
     10434       124  POPC      C24           -18.9993163378       19.3338787530      -12.2227360043  MEMB      72              0.0000000000
     10435       124  POPC      H4R           -18.0241525435       18.8953609171      -12.5388668197  MEMB      72              0.0000000000
     10436       124  POPC      H4S           -19.7923652860       18.8258795156      -12.8205015338  MEMB      72              0.0000000000
     10437       124  POPC      C25           -19.2163650908       19.0290066480      -10.7420124776  MEMB      72              0.0000000000
     10438       124  POPC      H5R           -19.2615852847       17.9226302358      -10.6148713033  MEMB      72              0.0000000000
     10439       124  POPC      H5S           -20.1957749059       19.4461603956      -10.4203096294  MEMB      72              0.0000000000
     10440       124  POPC      C26           -18.0908472605       19.5765262380       -9.8567257782  MEMB      72              0.0000000000
     10441       124  POPC      H6R           -18.1919396303       20.6780711289       -9.7455498098  MEMB      72              0.0000000000
     10442       124  POPC      H6S           -17.1173600961       19.4014081055      -10.3618290901  MEMB      72              0.0000000000
     10443       124  POPC      C27           -18.0685358625       18.9034966080       -8.4799686321  MEMB      72              0.0000000000
     10444       124  POPC      H7R           -17.2069494966       19.2920544505       -7.8909147949  MEMB      72              0.0000000000
     10445       124  POPC      H7S           -17.9070924936       17.8100149980       -8.6106830636  MEMB      72              0.0000000000
     10446       124  POPC      C28           -19.3708429405       19.1139878118       -7.7021381922  MEMB      72              0.0000000000
     10447       124  POPC      H8R           -19.3074986235       18.5368634279       -6.7513882016  MEMB      72              0.0000000000
     10448       124  POPC      H8S           -20.2289878653       18.6853579071       -8.2624324402  MEMB      72              0.0000000000
     10449       124  POPC      C29           -19.5861824628       20.5814550170       -7.4451356363  MEMB      72              0.0000000000
     10450       124  POPC      H91           -20.2054193988       21.1162030728       -8.1829268072  MEMB      72              0.0000000000
     10451       124  POPC      C210          -19.0669442522       21.2495960388       -6.4098569016  MEMB      72              0.0000000000
     10452       124  POPC      H101          -19.3207974208       22.3130922519       -6.2851962856  MEMB      72              0.0000000000
     10453       124  POPC      C211          -18.1862215342       20.6492766821       -5.3429333101  MEMB      72              0.0000000000
     10454       124  POPC      H11R          -17.8062443494       19.6405177821       -5.6226350848  MEMB      72              0.0000000000
     10455       124  POPC      H11S          -18.7759578505       20.4975094300       -4.4152172800  MEMB      72              0.0000000000
     10456       124  POPC      C212          -16.9642338501       21.5394233099       -5.0464704283  MEMB      72              0.0000000000
     10457       124  POPC      H12R          -16.2993549911       21.5505125214       -5.9407524153  MEMB      72              0.0000000000
     10458       124  POPC      H12S          -16.3867219665       21.0780692622       -4.2140132815  MEMB      72              0.0000000000
     10459       124  POPC      C213          -17.3114320376       22.9906160809       -4.6658492097  MEMB      72              0.0000000000
     10460       124  POPC      H13R          -17.6999816667       23.5084126241       -5.5716295847  MEMB      72              0.0000000000
     10461       124  POPC      H13S          -16.3881540432       23.5274186569       -4.3564618226  MEMB      72              0.0000000000
     10462       124  POPC      C214          -18.3564160968       23.1103705835       -3.5492900598  MEMB      72              0.0000000000
     10463       124  POPC      H14R          -19.1483640602       22.3396550078       -3.6288341103  MEMB      72              0.0000000000
     10464       124  POPC      H14S          -18.8918288748       24.0737641903       -3.6573258039  MEMB      72              0.0000000000
     10465       124  POPC      C215          -17.7379535630       23.0481651401       -2.1530111710  MEMB      72              0.0000000000
     10466       124  POPC      H15R          -16.9764950882       23.8548918891       -2.0541771923  MEMB      72              0.0000000000
     10467       124  POPC      H15S          -17.2259660128       22.0687247777       -2.0220407685  MEMB      72              0.0000000000
     10468       124  POPC      C216          -18.8118877183       23.2360393553       -1.0785240809  MEMB      72              0.0000000000
     10469       124  POPC      H16R          -19.6573518464       22.5392276550       -1.2731175854  MEMB      72              0.0000000000
     10470       124  POPC      H16S          -19.2110364490       24.2718357749       -1.1675776748  MEMB      72              0.0000000000
     10471       124  POPC      C217          -18.2836505643       23.0134282668        0.3402203981  MEMB      72              0.0000000000
     10472       124  POPC      H17R          -18.8389083385       23.6897993583        1.0278797352  MEMB      72              0.0000000000
     10473       124  POPC      H17S          -17.2090987209       23.2995008503        0.3826775570  MEMB      72              0.0000000000
     10474       124  POPC      C218          -18.4630784622       21.5765009394        0.8284745982  MEMB      72              0.0000000000
     10475       124  POPC      H18R          -18.1873297814       21.4845974936        1.9006682444  MEMB      72              0.0000000000
     10476       124  POPC      H18S          -17.8270787832       20.8862139342        0.2384235591  MEMB      72              0.0000000000
     10477       124  POPC      H18T          -19.5218984690       21.2564619204        0.7144681215  MEMB      72              0.0000000000
     10478       124  POPC      C33           -16.1709219667       15.4025927140      -15.1979826852  MEMB      72              0.0000000000
     10479       124  POPC      H3X           -15.3126813031       14.8942308627      -15.6950586456  MEMB      72              0.0000000000
     10480       124  POPC      H3Y           -16.8194026159       14.6034066990      -14.7888991488  MEMB      72              0.0000000000
     10481       124  POPC      C34           -15.5889526162       16.2334100486      -14.0363622751  MEMB      72              0.0000000000
     10482       124  POPC      H4X           -15.8865215177       17.3032433222      -14.1076931175  MEMB      72              0.0000000000
     10483       124  POPC      H4Y           -14.4772129083       16.1894323018      -14.0922462374  MEMB      72              0.0000000000
     10484       124  POPC      C35           -16.0141984121       15.6473134346      -12.6744082364  MEMB      72              0.0000000000
     10485       124  POPC      H5X           -15.9497794140       14.5368292628      -12.7625213020  MEMB      72              0.0000000000
     10486       124  POPC      H5Y           -17.0788953483       15.9012029007      -12.4817729021  MEMB      72              0.0000000000
     10487       124  POPC      C36           -15.1379855017       16.0303416974      -11.4672612188  MEMB      72              0.0000000000
     10488       124  POPC      H6X           -14.0698878642       16.0953435702      -11.7615598669  MEMB      72              0.0000000000
     10489       124  POPC      H6Y           -15.2465712713       15.1902278061      -10.7417373288  MEMB      72              0.0000000000
     10490       124  POPC      C37           -15.5676374074       17.3095312317      -10.7370552776  MEMB      72              0.0000000000
     10491       124  POPC      H7X           -16.6259746561       17.1685287964      -10.4198468296  MEMB      72              0.0000000000
     10492       124  POPC      H7Y           -15.5377669050       18.1625610722      -11.4511609505  MEMB      72              0.0000000000
     10493       124  POPC      C38           -14.7242003046       17.6670490248       -9.4908695027  MEMB      72              0.0000000000
     10494       124  POPC      H8X           -15.2220248124       18.4998927670       -8.9461471259  MEMB      72              0.0000000000
     10495       124  POPC      H8Y           -13.7295100951       18.0354689595       -9.8279463696  MEMB      72              0.0000000000
     10496       124  POPC      C39           -14.5037045664       16.4913481706       -8.5253221823  MEMB      72              0.0000000000
     10497       124  POPC      H9X           -13.9126903692       15.7270523018       -9.0756192571  MEMB      72              0.0000000000
     10498       124  POPC      H9Y           -15.4785980877       16.0371583895       -8.2458861326  MEMB      72              0.0000000000
     10499       124  POPC      C310          -13.6972101186       16.8242169419       -7.2602176391  MEMB      72              0.0000000000
     10500       124  POPC      H10X          -12.7655974549       17.3596554796       -7.5524496971  MEMB      72              0.0000000000
     10501       124  POPC      H10Y          -13.3907114597       15.8614544107       -6.7888793769  MEMB      72              0.0000000000
     10502       124  POPC      C311          -14.4356826483       17.6472064086       -6.1974570348  MEMB      72              0.0000000000
     10503       124  POPC      H11X          -14.6840993650       18.6595377068       -6.5853732415  MEMB      72              0.0000000000
     10504       124  POPC      H11Y          -13.7282172761       17.7873796311       -5.3454588817  MEMB      72              0.0000000000
     10505       124  POPC      C312          -15.7124019904       16.9968507015       -5.6373043678  MEMB      72              0.0000000000
     10506       124  POPC      H12X          -15.5741930972       15.8994340739       -5.5284939822  MEMB      72              0.0000000000
     10507       124  POPC      H12Y          -16.5537258065       17.1652475631       -6.3446363414  MEMB      72              0.0000000000
     10508       124  POPC      C313          -16.0260219410       17.6172811271       -4.2710841432  MEMB      72              0.0000000000
     10509       124  POPC      H13X          -16.0313466141       18.7227671740       -4.4068835876  MEMB      72              0.0000000000
     10510       124  POPC      H13Y          -15.1925888850       17.3652715569       -3.5758093071  MEMB      72              0.0000000000
     10511       124  POPC      C314          -17.3511592372       17.2091495313       -3.6179001069  MEMB      72              0.0000000000
     10512       124  POPC      H14X          -17.2648454436       16.1676140869       -3.2361269013  MEMB      72              0.0000000000
     10513       124  POPC      H14Y          -18.1661713902       17.2281966720       -4.3772051675  MEMB      72              0.0000000000
     10514       124  POPC      C315          -17.7252618720       18.1642701786       -2.4691510994  MEMB      72              0.0000000000
     10515       124  POPC      H15X          -18.5475844823       17.7156343745       -1.8691031531  MEMB      72              0.0000000000
     10516       124  POPC      H15Y          -18.1308015401       19.0971692478       -2.9207281978  MEMB      72              0.0000000000
     10517       124  POPC      C316          -16.5643893713       18.5594433829       -1.5446023711  MEMB      72              0.0000000000
     10518       124  POPC      H16X          -16.1671946892       17.6748106343       -1.0045687141  MEMB      72              0.0000000000
     10519       124  POPC      H16Y          -16.9060870770       19.3034074792       -0.7969624738  MEMB      72              0.0000000000
     10520       124  POPC      H16Z          -15.7336700300       19.0317815818       -2.1095632740  MEMB      72              0.0000000000
     10521       125  POPC      N              20.9602810641      -16.2221643752      -19.5964443696  MEMB      73              0.0000000000
     10522       125  POPC      C12            22.0283632152      -15.1511112523      -19.4875724939  MEMB      73              0.0000000000
     10523       125  POPC      H12A           22.1602308324      -14.6978239828      -20.4686687857  MEMB      73              0.0000000000
     10524       125  POPC      H12B           22.9849042241      -15.5774338821      -19.2091659325  MEMB      73              0.0000000000
     10525       125  POPC      C13            19.7202852922      -15.5847742637      -20.1695690613  MEMB      73              0.0000000000
     10526       125  POPC      H13A           19.4985761655      -14.6662031681      -19.6184582068  MEMB      73              0.0000000000
     10527       125  POPC      H13B           19.8604112977      -15.2609094740      -21.1957927071  MEMB      73              0.0000000000
     10528       125  POPC      H13C           18.8427276883      -16.2210162399      -20.1245217054  MEMB      73              0.0000000000
     10529       125  POPC      C14            21.3998339782      -17.3243131850      -20.5011036708  MEMB      73              0.0000000000
     10530       125  POPC      H14A           22.0842196432      -17.9835683190      -19.9924348553  MEMB      73              0.0000000000
     10531       125  POPC      H14B           20.5366163814      -17.9077110993      -20.8088480521  MEMB      73              0.0000000000
     10532       125  POPC      H14C           21.8737879437      -16.9352277144      -21.3957547467  MEMB      73              0.0000000000
     10533       125  POPC      C15            20.5913078315      -16.7799077808      -18.2413401491  MEMB      73              0.0000000000
     10534       125  POPC      H15A           21.4428113485      -17.1459241848      -17.6827479254  MEMB      73              0.0000000000
     10535       125  POPC      H15B           19.8388713885      -17.5668925536      -18.3015126190  MEMB      73              0.0000000000
     10536       125  POPC      H15C           20.1364695829      -15.9820058613      -17.6505179300  MEMB      73              0.0000000000
     10537       125  POPC      C11            21.7162457558      -13.9703368536      -18.5489809680  MEMB      73              0.0000000000
     10538       125  POPC      H11A           22.6846501092      -13.4174406254      -18.4209174412  MEMB      73              0.0000000000
     10539       125  POPC      H11B           21.4077589147      -14.3070323858      -17.5386221718  MEMB      73              0.0000000000
     10540       125  POPC      P              20.8660188057      -11.6054380415      -19.1805539584  MEMB      73              0.0000000000
     10541       125  POPC      O13            19.5639393997      -10.9234411500      -19.3396509759  MEMB      73              0.0000000000
     10542       125  POPC      O14            21.8628511051      -11.3880479089      -20.2577612099  MEMB      73              0.0000000000
     10543       125  POPC      O12            20.6658402387      -13.1781534568      -19.1113578223  MEMB      73              0.0000000000
     10544       125  POPC      O11            21.4504313002      -11.3174473169      -17.7261017721  MEMB      73              0.0000000000
     10545       125  POPC      C1             20.4191097142      -11.1667637709      -16.7362381162  MEMB      73              0.0000000000
     10546       125  POPC      HA             19.6343094186      -11.9642209097      -16.8102971424  MEMB      73              0.0000000000
     10547       125  POPC      HB             19.9167581296      -10.1808534302      -16.8815667897  MEMB      73              0.0000000000
     10548       125  POPC      C2             20.9163106028      -11.2040449089      -15.2700207126  MEMB      73              0.0000000000
     10549       125  POPC      HS             21.7264071509      -10.4572992026      -15.1217556517  MEMB      73              0.0000000000
     10550       125  POPC      O21            21.3314297238      -12.5181349729      -14.8944611922  MEMB      73              0.0000000000
     10551       125  POPC      C21            22.5473631381      -12.9132326774      -15.1916100949  MEMB      73              0.0000000000
     10552       125  POPC      O22            23.4521771296      -12.2637982104      -15.6811849551  MEMB      73              0.0000000000
     10553       125  POPC      C22            22.6190824350      -14.3692456513      -14.7170988626  MEMB      73              0.0000000000
     10554       125  POPC      H2R            21.9183712136      -14.9679864491      -15.3313289952  MEMB      73              0.0000000000
     10555       125  POPC      H2S            22.2295534651      -14.3814402991      -13.6776977531  MEMB      73              0.0000000000
     10556       125  POPC      C3             19.6910537753      -10.8155124684      -14.3991452655  MEMB      73              0.0000000000
     10557       125  POPC      HX             18.8453613638      -11.4366102895      -14.7692600865  MEMB      73              0.0000000000
     10558       125  POPC      HY             19.4319221143       -9.7590341698      -14.6133443819  MEMB      73              0.0000000000
     10559       125  POPC      O31            19.8374799940      -11.0949918310      -12.9963384823  MEMB      73              0.0000000000
     10560       125  POPC      C31            20.1888151942      -10.0816436918      -12.2336876906  MEMB      73              0.0000000000
     10561       125  POPC      O32            20.4238798942       -8.9440366813      -12.5979962339  MEMB      73              0.0000000000
     10562       125  POPC      C32            20.2064142804      -10.6081839769      -10.7961760253  MEMB      73              0.0000000000
     10563       125  POPC      H2X            21.1316433147      -11.2032486827      -10.6535790328  MEMB      73              0.0000000000
     10564       125  POPC      H2Y            19.3355436531      -11.2858145577      -10.6724627049  MEMB      73              0.0000000000
     10565       125  POPC      C23            24.0328338700      -14.9961733211      -14.7339254125  MEMB      73              0.0000000000
     10566       125  POPC      H3R            24.7830822317      -14.2947676894      -14.3022602733  MEMB      73              0.0000000000
     10567       125  POPC      H3S            24.3256480706      -15.1767903233      -15.7950189266  MEMB      73              0.0000000000
     10568       125  POPC      C24            24.0706264627      -16.3209774503      -13.9550352318  MEMB      73              0.0000000000
     10569       125  POPC      H4R            24.8175933549      -16.9807186486      -14.4583986279  MEMB      73              0.0000000000
     10570       125  POPC      H4S            23.0856052328      -16.8342120526      -14.0080403182  MEMB      73              0.0000000000
     10571       125  POPC      C25            24.5096521295      -16.1879167417      -12.4822738376  MEMB      73              0.0000000000
     10572       125  POPC      H5R            25.4515432933      -15.6013233937      -12.4332764423  MEMB      73              0.0000000000
     10573       125  POPC      H5S            24.7292166058      -17.2088327623      -12.0910271836  MEMB      73              0.0000000000
     10574       125  POPC      C26            23.5090872182      -15.5266388840      -11.5270281124  MEMB      73              0.0000000000
     10575       125  POPC      H6R            22.5135846058      -16.0119888739      -11.6374794695  MEMB      73              0.0000000000
     10576       125  POPC      H6S            23.3988084500      -14.4526721708      -11.7939341809  MEMB      73              0.0000000000
     10577       125  POPC      C27            23.9794653956      -15.6402008685      -10.0674856325  MEMB      73              0.0000000000
     10578       125  POPC      H7R            25.0515620255      -15.3414785797      -10.0148933454  MEMB      73              0.0000000000
     10579       125  POPC      H7S            23.9220992058      -16.7091601398       -9.7619378346  MEMB      73              0.0000000000
     10580       125  POPC      C28            23.1973216841      -14.7672695715       -9.0693554719  MEMB      73              0.0000000000
     10581       125  POPC      H8R            23.4201537588      -13.7000865842       -9.2920559788  MEMB      73              0.0000000000
     10582       125  POPC      H8S            23.5840373186      -14.9683899250       -8.0429051643  MEMB      73              0.0000000000
     10583       125  POPC      C29            21.7110131486      -14.9976466490       -9.1378596594  MEMB      73              0.0000000000
     10584       125  POPC      H91            21.1430515525      -14.2150574309       -9.6632817660  MEMB      73              0.0000000000
     10585       125  POPC      C210           21.0472513755      -16.0438019932       -8.6194281677  MEMB      73              0.0000000000
     10586       125  POPC      H101           19.9534796746      -16.0918214110       -8.7398024078  MEMB      73              0.0000000000
     10587       125  POPC      C211           21.6565505197      -17.1972142629       -7.8615729328  MEMB      73              0.0000000000
     10588       125  POPC      H11R           22.7637161647      -17.1170711059       -7.7830029879  MEMB      73              0.0000000000
     10589       125  POPC      H11S           21.4502206110      -18.1469719040       -8.4000402942  MEMB      73              0.0000000000
     10590       125  POPC      C212           21.0813037398      -17.2878035116       -6.4364982008  MEMB      73              0.0000000000
     10591       125  POPC      H12R           21.4400851779      -18.2328942678       -5.9666808465  MEMB      73              0.0000000000
     10592       125  POPC      H12S           19.9702098471      -17.3435831582       -6.4827237155  MEMB      73              0.0000000000
     10593       125  POPC      C213           21.5100426849      -16.1104610700       -5.5471144574  MEMB      73              0.0000000000
     10594       125  POPC      H13R           21.3421829407      -15.1417542592       -6.0684799474  MEMB      73              0.0000000000
     10595       125  POPC      H13S           22.6066062008      -16.2010300442       -5.3681353423  MEMB      73              0.0000000000
     10596       125  POPC      C214           20.7797254936      -16.0678539995       -4.2000478130  MEMB      73              0.0000000000
     10597       125  POPC      H14R           21.3725552210      -15.4189818728       -3.5126651176  MEMB      73              0.0000000000
     10598       125  POPC      H14S           20.7391352148      -17.0883806189       -3.7604508435  MEMB      73              0.0000000000
     10599       125  POPC      C215           19.3645039455      -15.4775813314       -4.2748415979  MEMB      73              0.0000000000
     10600       125  POPC      H15R           18.7398291333      -16.0639158445       -4.9805280657  MEMB      73              0.0000000000
     10601       125  POPC      H15S           19.4495923924      -14.4421080565       -4.6774139855  MEMB      73              0.0000000000
     10602       125  POPC      C216           18.7024424007      -15.4349553915       -2.8894055673  MEMB      73              0.0000000000
     10603       125  POPC      H16R           19.5094730909      -15.2845373891       -2.1337878630  MEMB      73              0.0000000000
     10604       125  POPC      H16S           18.2212148550      -16.4112524773       -2.6655999797  MEMB      73              0.0000000000
     10605       125  POPC      C217           17.6980256060      -14.2900205515       -2.7096149715  MEMB      73              0.0000000000
     10606       125  POPC      H17R           16.7868089478      -14.4747922652       -3.3203096979  MEMB      73              0.0000000000
     10607       125  POPC      H17S           18.1496445866      -13.3467225638       -3.0885181549  MEMB      73              0.0000000000
     10608       125  POPC      C218           17.3230446697      -14.0790491366       -1.2411174846  MEMB      73              0.0000000000
     10609       125  POPC      H18R           16.6568154728      -14.8945525188       -0.8897115870  MEMB      73              0.0000000000
     10610       125  POPC      H18S           16.8047566566      -13.1057735650       -1.1108270000  MEMB      73              0.0000000000
     10611       125  POPC      H18T           18.2317776850      -14.0669945328       -0.6007116003  MEMB      73              0.0000000000
     10612       125  POPC      C33            20.1187585409       -9.4793582930       -9.7530354849  MEMB      73              0.0000000000
     10613       125  POPC      H3X            19.2935682370       -8.7858140007      -10.0466348070  MEMB      73              0.0000000000
     10614       125  POPC      H3Y            21.0664723868       -8.8944729181       -9.7621728665  MEMB      73              0.0000000000
     10615       125  POPC      C34            19.8081258984       -9.9504224492       -8.3185987592  MEMB      73              0.0000000000
     10616       125  POPC      H4X            18.7622089170      -10.3326389108       -8.2853935614  MEMB      73              0.0000000000
     10617       125  POPC      H4Y            19.8513618067       -9.0688880237       -7.6393443371  MEMB      73              0.0000000000
     10618       125  POPC      C35            20.7318673637      -11.0410766366       -7.7516469766  MEMB      73              0.0000000000
     10619       125  POPC      H5X            20.5774630412      -11.9837176461       -8.3230730324  MEMB      73              0.0000000000
     10620       125  POPC      H5Y            20.4251762585      -11.2413399387       -6.6986065482  MEMB      73              0.0000000000
     10621       125  POPC      C36            22.2294057419      -10.6935446621       -7.7711822240  MEMB      73              0.0000000000
     10622       125  POPC      H6X            22.4169679222       -9.7233291859       -7.2601290558  MEMB      73              0.0000000000
     10623       125  POPC      H6Y            22.5458584484      -10.5733234460       -8.8323260161  MEMB      73              0.0000000000
     10624       125  POPC      C37            23.0945452006      -11.7976882737       -7.1380831597  MEMB      73              0.0000000000
     10625       125  POPC      H7X            24.0025365960      -11.9427638242       -7.7679339303  MEMB      73              0.0000000000
     10626       125  POPC      H7Y            22.5295984193      -12.7561951573       -7.1461705545  MEMB      73              0.0000000000
     10627       125  POPC      C38            23.5823205355      -11.5094097184       -5.7097642750  MEMB      73              0.0000000000
     10628       125  POPC      H8X            24.2820854688      -10.6433193258       -5.7381085117  MEMB      73              0.0000000000
     10629       125  POPC      H8Y            24.1568623317      -12.3926679922       -5.3505442976  MEMB      73              0.0000000000
     10630       125  POPC      C39            22.4810821751      -11.2089251864       -4.6841344548  MEMB      73              0.0000000000
     10631       125  POPC      H9X            21.8251857370      -10.3856386446       -5.0350598970  MEMB      73              0.0000000000
     10632       125  POPC      H9Y            23.0007937720      -10.8494757586       -3.7724549353  MEMB      73              0.0000000000
     10633       125  POPC      C310           21.6543413631      -12.4394013548       -4.2934575552  MEMB      73              0.0000000000
     10634       125  POPC      H10X           22.3453253085      -13.2190205521       -3.9032307126  MEMB      73              0.0000000000
     10635       125  POPC      H10Y           21.1685482874      -12.8621795330       -5.2017578477  MEMB      73              0.0000000000
     10636       125  POPC      C311           20.5635165842      -12.1718293967       -3.2411197773  MEMB      73              0.0000000000
     10637       125  POPC      H11X           20.2858713351      -13.1458605177       -2.7851532745  MEMB      73              0.0000000000
     10638       125  POPC      H11Y           19.6644057188      -11.7773817545       -3.7674183133  MEMB      73              0.0000000000
     10639       125  POPC      C312           20.9092186168      -11.1871899167       -2.1107217870  MEMB      73              0.0000000000
     10640       125  POPC      H12X           20.0133935762      -11.0801377242       -1.4597711800  MEMB      73              0.0000000000
     10641       125  POPC      H12Y           21.0980749439      -10.1868300543       -2.5595662127  MEMB      73              0.0000000000
     10642       125  POPC      C313           22.1138786702      -11.5735858298       -1.2358328524  MEMB      73              0.0000000000
     10643       125  POPC      H13X           22.2569276043      -10.7755875609       -0.4744403204  MEMB      73              0.0000000000
     10644       125  POPC      H13Y           23.0289691485      -11.6060682702       -1.8593097369  MEMB      73              0.0000000000
     10645       125  POPC      C314           21.9893725112      -12.8937103495       -0.4718385991  MEMB      73              0.0000000000
     10646       125  POPC      H14X           22.9728390826      -13.1178198274        0.0019660961  MEMB      73              0.0000000000
     10647       125  POPC      H14Y           21.7690317987      -13.7288495195       -1.1704948180  MEMB      73              0.0000000000
     10648       125  POPC      C315           20.9297434088      -12.8148936151        0.6298525095  MEMB      73              0.0000000000
     10649       125  POPC      H15X           19.9308216676      -12.6545170375        0.1671474372  MEMB      73              0.0000000000
     10650       125  POPC      H15Y           21.1443959789      -11.9311763088        1.2742578688  MEMB      73              0.0000000000
     10651       125  POPC      C316           20.8982212161      -14.0687798357        1.4942046500  MEMB      73              0.0000000000
     10652       125  POPC      H16X           20.7566744598      -14.9633846660        0.8515019416  MEMB      73              0.0000000000
     10653       125  POPC      H16Y           20.0736482771      -14.0147821750        2.2357463338  MEMB      73              0.0000000000
     10654       125  POPC      H16Z           21.8540206408      -14.1856814182        2.0423191373  MEMB      73              0.0000000000
     10655       126  POPC      N              28.3050055453        1.5723814002      -21.2229443166  MEMB      74              0.0000000000
     10656       126  POPC      C12            28.0659624740        0.5570111538      -20.1176799291  MEMB      74              0.0000000000
     10657       126  POPC      H12A           28.8622150197        0.6582301708      -19.3801611340  MEMB      74              0.0000000000
     10658       126  POPC      H12B           28.1374230376       -0.4445173677      -20.5250699508  MEMB      74              0.0000000000
     10659       126  POPC      C13            27.3338883588        1.3383267715      -22.3421660795  MEMB      74              0.0000000000
     10660       126  POPC      H13A           27.3386700148        0.3019635046      -22.6653590982  MEMB      74              0.0000000000
     10661       126  POPC      H13B           26.3171974113        1.5473783301      -22.0409811361  MEMB      74              0.0000000000
     10662       126  POPC      H13C           27.5799486295        1.9431697514      -23.2099384790  MEMB      74              0.0000000000
     10663       126  POPC      C14            28.1909529038        2.9571653400      -20.6575559632  MEMB      74              0.0000000000
     10664       126  POPC      H14A           28.9014715901        3.0793483401      -19.8223585706  MEMB      74              0.0000000000
     10665       126  POPC      H14B           28.3518709891        3.7278710664      -21.3861411418  MEMB      74              0.0000000000
     10666       126  POPC      H14C           27.2223490440        3.0561882465      -20.1670819308  MEMB      74              0.0000000000
     10667       126  POPC      C15            29.6795305436        1.4262511785      -21.7954069062  MEMB      74              0.0000000000
     10668       126  POPC      H15A           29.7882478040        2.1527356971      -22.6030204460  MEMB      74              0.0000000000
     10669       126  POPC      H15B           29.8184693540        0.4480186487      -22.2485961534  MEMB      74              0.0000000000
     10670       126  POPC      H15C           30.4298826466        1.6135836378      -21.0390390720  MEMB      74              0.0000000000
     10671       126  POPC      C11            26.7537328406        0.6952808397      -19.2976108549  MEMB      74              0.0000000000
     10672       126  POPC      H11A           26.6108344683       -0.2225538494      -18.6759274481  MEMB      74              0.0000000000
     10673       126  POPC      H11B           25.8920501087        0.7380665793      -19.9975067636  MEMB      74              0.0000000000
     10674       126  POPC      P              27.8768063427        1.9320093830      -17.3249678407  MEMB      74              0.0000000000
     10675       126  POPC      O13            29.1768402073        2.1492647555      -18.0089331473  MEMB      74              0.0000000000
     10676       126  POPC      O14            27.7285460341        0.7409472171      -16.4650617832  MEMB      74              0.0000000000
     10677       126  POPC      O12            26.7607967307        1.8682405849      -18.4732737621  MEMB      74              0.0000000000
     10678       126  POPC      O11            27.4870101254        3.2446573913      -16.5290743431  MEMB      74              0.0000000000
     10679       126  POPC      C1             28.2993410497        4.4232274598      -16.5747152552  MEMB      74              0.0000000000
     10680       126  POPC      HA             28.4921743022        4.7235211643      -17.6310166084  MEMB      74              0.0000000000
     10681       126  POPC      HB             29.2803783075        4.2340856377      -16.0834532267  MEMB      74              0.0000000000
     10682       126  POPC      C2             27.6197457790        5.6404287467      -15.8664731969  MEMB      74              0.0000000000
     10683       126  POPC      HS             28.2322335262        6.5458739299      -16.0805259768  MEMB      74              0.0000000000
     10684       126  POPC      O21            27.5909436881        5.3969228826      -14.4418527152  MEMB      74              0.0000000000
     10685       126  POPC      C21            27.4534250471        6.4495205553      -13.6201208645  MEMB      74              0.0000000000
     10686       126  POPC      O22            27.2881758888        7.6017707145      -13.9698254203  MEMB      74              0.0000000000
     10687       126  POPC      C22            27.7507578449        5.9793370583      -12.1795266288  MEMB      74              0.0000000000
     10688       126  POPC      H2R            28.6330023890        6.5594520292      -11.8406334185  MEMB      74              0.0000000000
     10689       126  POPC      H2S            28.0396060522        4.9091803527      -12.2145578893  MEMB      74              0.0000000000
     10690       126  POPC      C3             26.1786510995        5.8646384491      -16.4639110091  MEMB      74              0.0000000000
     10691       126  POPC      HX             26.3352016276        6.1682525377      -17.5211505724  MEMB      74              0.0000000000
     10692       126  POPC      HY             25.7025057254        6.7287493911      -15.9541781244  MEMB      74              0.0000000000
     10693       126  POPC      O31            25.3310478695        4.6784948653      -16.4679443945  MEMB      74              0.0000000000
     10694       126  POPC      C31            24.9577725584        4.3773131194      -15.2282662984  MEMB      74              0.0000000000
     10695       126  POPC      O32            24.8823205882        5.1824127104      -14.3220769139  MEMB      74              0.0000000000
     10696       126  POPC      C32            24.5739689442        2.9276958117      -15.0376306083  MEMB      74              0.0000000000
     10697       126  POPC      H2X            25.1960648529        2.2790285536      -15.6863899814  MEMB      74              0.0000000000
     10698       126  POPC      H2Y            23.5059675049        2.8046034194      -15.3115192339  MEMB      74              0.0000000000
     10699       126  POPC      C23            26.6158953621        6.1461442290      -11.1355964149  MEMB      74              0.0000000000
     10700       126  POPC      H3R            25.6876617755        5.6558558237      -11.5047749628  MEMB      74              0.0000000000
     10701       126  POPC      H3S            26.4048642676        7.2296624570      -10.9895160200  MEMB      74              0.0000000000
     10702       126  POPC      C24            27.0322995103        5.5150973446       -9.7910215727  MEMB      74              0.0000000000
     10703       126  POPC      H4R            28.0441256861        5.9095152312       -9.5420495676  MEMB      74              0.0000000000
     10704       126  POPC      H4S            27.1370724139        4.4160950447       -9.9214102224  MEMB      74              0.0000000000
     10705       126  POPC      C25            26.1064359777        5.8161764898       -8.5949117002  MEMB      74              0.0000000000
     10706       126  POPC      H5R            25.9217355943        6.9141303250       -8.5584362353  MEMB      74              0.0000000000
     10707       126  POPC      H5S            26.6358268382        5.5390750287       -7.6559090743  MEMB      74              0.0000000000
     10708       126  POPC      C26            24.7517541524        5.0841062961       -8.6205572107  MEMB      74              0.0000000000
     10709       126  POPC      H6R            24.2662158395        5.2897062493       -9.6000593224  MEMB      74              0.0000000000
     10710       126  POPC      H6S            24.0943039283        5.5155438930       -7.8314640156  MEMB      74              0.0000000000
     10711       126  POPC      C27            24.8195527972        3.5538804068       -8.4310435641  MEMB      74              0.0000000000
     10712       126  POPC      H7R            25.4709552445        3.1268309293       -9.2215949073  MEMB      74              0.0000000000
     10713       126  POPC      H7S            23.8019079876        3.1292729303       -8.5889911625  MEMB      74              0.0000000000
     10714       126  POPC      C28            25.3462254077        3.0653432621       -7.0673434447  MEMB      74              0.0000000000
     10715       126  POPC      H8R            26.3961814828        3.4070202374       -6.9344914283  MEMB      74              0.0000000000
     10716       126  POPC      H8S            25.3898894442        1.9534165636       -7.0860428038  MEMB      74              0.0000000000
     10717       126  POPC      C29            24.5012098508        3.5402225967       -5.9150957024  MEMB      74              0.0000000000
     10718       126  POPC      H91            24.8014256527        4.5191346328       -5.5113328453  MEMB      74              0.0000000000
     10719       126  POPC      C210           23.4628615622        2.8947262268       -5.3482878434  MEMB      74              0.0000000000
     10720       126  POPC      H101           22.9483553863        3.3594227401       -4.4943955243  MEMB      74              0.0000000000
     10721       126  POPC      C211           22.9037045421        1.5509946097       -5.7329858585  MEMB      74              0.0000000000
     10722       126  POPC      H11R           23.0812243544        1.3519006731       -6.8130531617  MEMB      74              0.0000000000
     10723       126  POPC      H11S           21.8015125428        1.5374729743       -5.5865131427  MEMB      74              0.0000000000
     10724       126  POPC      C212           23.5313435244        0.4108586841       -4.9049661320  MEMB      74              0.0000000000
     10725       126  POPC      H12R           24.6221958557        0.3906517824       -5.1214825943  MEMB      74              0.0000000000
     10726       126  POPC      H12S           23.1106158381       -0.5617970924       -5.2449293836  MEMB      74              0.0000000000
     10727       126  POPC      C213           23.2915021203        0.5079782746       -3.3880526114  MEMB      74              0.0000000000
     10728       126  POPC      H13R           22.2006031136        0.4006238641       -3.1986878692  MEMB      74              0.0000000000
     10729       126  POPC      H13S           23.5827194693        1.5152115657       -3.0251128921  MEMB      74              0.0000000000
     10730       126  POPC      C214           24.0518414122       -0.5580643308       -2.5755765854  MEMB      74              0.0000000000
     10731       126  POPC      H14R           23.7133104299       -1.5662025891       -2.9061217553  MEMB      74              0.0000000000
     10732       126  POPC      H14S           23.7874009505       -0.4499140212       -1.5002709381  MEMB      74              0.0000000000
     10733       126  POPC      C215           25.5853899461       -0.4935686984       -2.7129465412  MEMB      74              0.0000000000
     10734       126  POPC      H15R           25.8667723673       -0.6422537834       -3.7751473223  MEMB      74              0.0000000000
     10735       126  POPC      H15S           26.0290488125       -1.3384506604       -2.1407560490  MEMB      74              0.0000000000
     10736       126  POPC      C216           26.2090825297        0.8119673294       -2.2104774748  MEMB      74              0.0000000000
     10737       126  POPC      H16R           26.2093830333        0.7737086678       -1.1026699892  MEMB      74              0.0000000000
     10738       126  POPC      H16S           25.5862262811        1.6841442418       -2.5027577755  MEMB      74              0.0000000000
     10739       126  POPC      C217           27.6245338132        1.0890299376       -2.7487086382  MEMB      74              0.0000000000
     10740       126  POPC      H17R           28.0818564481        1.8948739931       -2.1315841308  MEMB      74              0.0000000000
     10741       126  POPC      H17S           27.5117530687        1.4935442526       -3.7791013161  MEMB      74              0.0000000000
     10742       126  POPC      C218           28.5804915691       -0.1076842925       -2.8103810116  MEMB      74              0.0000000000
     10743       126  POPC      H18R           28.4789821221       -0.7560129595       -1.9151743967  MEMB      74              0.0000000000
     10744       126  POPC      H18S           29.6348278048        0.2360706773       -2.8824410087  MEMB      74              0.0000000000
     10745       126  POPC      H18T           28.3598540527       -0.7094491341       -3.7104914398  MEMB      74              0.0000000000
     10746       126  POPC      C33            24.7878803198        2.5819384917      -13.5435111504  MEMB      74              0.0000000000
     10747       126  POPC      H3X            24.1539013343        1.7121429505      -13.3130821211  MEMB      74              0.0000000000
     10748       126  POPC      H3Y            24.4168323530        3.3749614304      -12.8557332187  MEMB      74              0.0000000000
     10749       126  POPC      C34            26.2516326683        2.2444880250      -13.2005726766  MEMB      74              0.0000000000
     10750       126  POPC      H4X            26.8638950839        3.1712307470      -13.2352396184  MEMB      74              0.0000000000
     10751       126  POPC      H4Y            26.6594809633        1.5477064758      -13.9700100192  MEMB      74              0.0000000000
     10752       126  POPC      C35            26.3546824529        1.5852080459      -11.8206453228  MEMB      74              0.0000000000
     10753       126  POPC      H5X            25.7775112668        0.6373693483      -11.8651136698  MEMB      74              0.0000000000
     10754       126  POPC      H5Y            25.8702319078        2.2417672760      -11.0697412289  MEMB      74              0.0000000000
     10755       126  POPC      C36            27.7621551357        1.2094598113      -11.3323235110  MEMB      74              0.0000000000
     10756       126  POPC      H6X            28.3340744236        2.1204923121      -11.0591248262  MEMB      74              0.0000000000
     10757       126  POPC      H6Y            28.3060178429        0.6959094233      -12.1573262894  MEMB      74              0.0000000000
     10758       126  POPC      C37            27.6455333084        0.2480901569      -10.1383111170  MEMB      74              0.0000000000
     10759       126  POPC      H7X            27.0027110353       -0.6019277732      -10.4633167181  MEMB      74              0.0000000000
     10760       126  POPC      H7Y            27.1110716819        0.7475451926       -9.3014325333  MEMB      74              0.0000000000
     10761       126  POPC      C38            28.9638291412       -0.3690883920       -9.6566305201  MEMB      74              0.0000000000
     10762       126  POPC      H8X            29.5176064312       -0.7908258155      -10.5240134246  MEMB      74              0.0000000000
     10763       126  POPC      H8Y            28.7128372980       -1.2209730836       -8.9857396844  MEMB      74              0.0000000000
     10764       126  POPC      C39            29.8823876681        0.5691628848       -8.8661881703  MEMB      74              0.0000000000
     10765       126  POPC      H9X            30.3244482843        1.3319151452       -9.5437850100  MEMB      74              0.0000000000
     10766       126  POPC      H9Y            30.7055760310       -0.0622147807       -8.4621891547  MEMB      74              0.0000000000
     10767       126  POPC      C310           29.2226320257        1.2676298725       -7.6722767209  MEMB      74              0.0000000000
     10768       126  POPC      H10X           28.7144478438        0.5061835622       -7.0387267495  MEMB      74              0.0000000000
     10769       126  POPC      H10Y           28.4487629194        1.9830106001       -8.0296172755  MEMB      74              0.0000000000
     10770       126  POPC      C311           30.2483455868        2.0205300896       -6.8160768926  MEMB      74              0.0000000000
     10771       126  POPC      H11X           30.6958552147        2.8418905569       -7.4202342339  MEMB      74              0.0000000000
     10772       126  POPC      H11Y           31.0631525929        1.3245295159       -6.5154339096  MEMB      74              0.0000000000
     10773       126  POPC      C312           29.6174617032        2.6093695472       -5.5552680923  MEMB      74              0.0000000000
     10774       126  POPC      H12X           29.2408764817        1.7760493107       -4.9264851420  MEMB      74              0.0000000000
     10775       126  POPC      H12Y           28.7479594484        3.2260639291       -5.8748751315  MEMB      74              0.0000000000
     10776       126  POPC      C313           30.5895284273        3.4589244502       -4.7273823491  MEMB      74              0.0000000000
     10777       126  POPC      H13X           30.9964624220        4.2639531391       -5.3793750430  MEMB      74              0.0000000000
     10778       126  POPC      H13Y           31.4494712591        2.8313929770       -4.4006365243  MEMB      74              0.0000000000
     10779       126  POPC      C314           29.9387233614        4.0978524576       -3.4902223427  MEMB      74              0.0000000000
     10780       126  POPC      H14X           30.6471573455        4.8414408282       -3.0586933892  MEMB      74              0.0000000000
     10781       126  POPC      H14Y           29.7623726932        3.3195002671       -2.7182544379  MEMB      74              0.0000000000
     10782       126  POPC      C315           28.5985110838        4.7852918790       -3.7785688008  MEMB      74              0.0000000000
     10783       126  POPC      H15X           27.8298962697        4.0232052864       -4.0437106608  MEMB      74              0.0000000000
     10784       126  POPC      H15Y           28.7179579334        5.4488025018       -4.6630372220  MEMB      74              0.0000000000
     10785       126  POPC      C316           28.0850090837        5.5994741916       -2.5944106883  MEMB      74              0.0000000000
     10786       126  POPC      H16X           27.4984855593        6.4680263788       -2.9530563043  MEMB      74              0.0000000000
     10787       126  POPC      H16Y           28.9260625580        5.9850294158       -1.9795288607  MEMB      74              0.0000000000
     10788       126  POPC      H16Z           27.4302762634        4.9688016857       -1.9582916578  MEMB      74              0.0000000000
     10789       127  POPC      N               7.7325311468      -22.3030486845      -19.8975639853  MEMB      75              0.0000000000
     10790       127  POPC      C12             8.9177088353      -22.0130353252      -18.9895618403  MEMB      75              0.0000000000
     10791       127  POPC      H12A            8.6604002477      -22.3653832926      -17.9861026694  MEMB      75              0.0000000000
     10792       127  POPC      H12B            9.0262697861      -20.9366873284      -18.9183817328  MEMB      75              0.0000000000
     10793       127  POPC      C13             7.4778044658      -23.7847048039      -19.8863578594  MEMB      75              0.0000000000
     10794       127  POPC      H13A            6.8645847025      -24.1102729602      -20.7122913160  MEMB      75              0.0000000000
     10795       127  POPC      H13B            8.4419130398      -24.2972463246      -19.9332614813  MEMB      75              0.0000000000
     10796       127  POPC      H13C            7.0683586900      -24.0705800777      -18.9260068707  MEMB      75              0.0000000000
     10797       127  POPC      C14             6.5328485791      -21.5520984552      -19.4356165638  MEMB      75              0.0000000000
     10798       127  POPC      H14A            6.6803475595      -20.4689425205      -19.5203326538  MEMB      75              0.0000000000
     10799       127  POPC      H14B            5.6503010015      -21.7993953037      -20.0175006876  MEMB      75              0.0000000000
     10800       127  POPC      H14C            6.3558193546      -21.7146810161      -18.3746691310  MEMB      75              0.0000000000
     10801       127  POPC      C15             8.0646539421      -21.8558828868      -21.2786538651  MEMB      75              0.0000000000
     10802       127  POPC      H15A            8.9955346546      -22.3328604137      -21.5578116830  MEMB      75              0.0000000000
     10803       127  POPC      H15B            8.1679570663      -20.7747119581      -21.3038101898  MEMB      75              0.0000000000
     10804       127  POPC      H15C            7.2623785709      -22.1394982170      -21.9571016032  MEMB      75              0.0000000000
     10805       127  POPC      C11            10.2798351994      -22.6629323458      -19.3873661672  MEMB      75              0.0000000000
     10806       127  POPC      H11A           11.1016019938      -22.2666892193      -18.7449736694  MEMB      75              0.0000000000
     10807       127  POPC      H11B           10.5334434797      -22.3689632487      -20.4292811831  MEMB      75              0.0000000000
     10808       127  POPC      P              10.3319933097      -24.8688043321      -17.9630793200  MEMB      75              0.0000000000
     10809       127  POPC      O13            11.4483416606      -24.3539364950      -17.1508986509  MEMB      75              0.0000000000
     10810       127  POPC      O14            10.2401388761      -26.3241015557      -18.2473228109  MEMB      75              0.0000000000
     10811       127  POPC      O12            10.2542410433      -24.0883182046      -19.3442888287  MEMB      75              0.0000000000
     10812       127  POPC      O11             8.9547107105      -24.3786454635      -17.3395254675  MEMB      75              0.0000000000
     10813       127  POPC      C1              8.1254217293      -25.3246866594      -16.6723784651  MEMB      75              0.0000000000
     10814       127  POPC      HA              8.7216811626      -25.9129279415      -15.9350793273  MEMB      75              0.0000000000
     10815       127  POPC      HB              7.6704653940      -26.0341178309      -17.4011404502  MEMB      75              0.0000000000
     10816       127  POPC      C2              6.9844477877      -24.6450065990      -15.8701508685  MEMB      75              0.0000000000
     10817       127  POPC      HS              6.3059935171      -24.1146324909      -16.5783221422  MEMB      75              0.0000000000
     10818       127  POPC      O21             7.5392725382      -23.7456077125      -14.8928796668  MEMB      75              0.0000000000
     10819       127  POPC      C21             7.9018389862      -22.5578839034      -15.3603417657  MEMB      75              0.0000000000
     10820       127  POPC      O22             7.5534818622      -22.0860995685      -16.4288458728  MEMB      75              0.0000000000
     10821       127  POPC      C22             8.8286416236      -21.8675453316      -14.3476494799  MEMB      75              0.0000000000
     10822       127  POPC      H2R             9.3522538385      -21.0428450402      -14.8764866432  MEMB      75              0.0000000000
     10823       127  POPC      H2S             9.5851809440      -22.6156542677      -14.0377916190  MEMB      75              0.0000000000
     10824       127  POPC      C3              6.1503159082      -25.7368799460      -15.1471754177  MEMB      75              0.0000000000
     10825       127  POPC      HX              5.6117809849      -26.3353812443      -15.9158016968  MEMB      75              0.0000000000
     10826       127  POPC      HY              5.3865245707      -25.2222502335      -14.5181810347  MEMB      75              0.0000000000
     10827       127  POPC      O31             7.0263026168      -26.6182633990      -14.4168766436  MEMB      75              0.0000000000
     10828       127  POPC      C31             6.7398624831      -26.8180271673      -13.1446344999  MEMB      75              0.0000000000
     10829       127  POPC      O32             5.7591170108      -26.3965938844      -12.5600573339  MEMB      75              0.0000000000
     10830       127  POPC      C32             7.8064287315      -27.7087528530      -12.5037737221  MEMB      75              0.0000000000
     10831       127  POPC      H2X             8.5228046382      -28.0600715158      -13.2749604616  MEMB      75              0.0000000000
     10832       127  POPC      H2Y             7.2726306083      -28.5923555182      -12.0924447026  MEMB      75              0.0000000000
     10833       127  POPC      C23             8.0994397295      -21.2927425623      -13.1048695271  MEMB      75              0.0000000000
     10834       127  POPC      H3R             7.3153915982      -20.5609250272      -13.4065411967  MEMB      75              0.0000000000
     10835       127  POPC      H3S             8.8420132426      -20.7369936312      -12.4868785269  MEMB      75              0.0000000000
     10836       127  POPC      C24             7.4759328896      -22.3765553459      -12.2189578937  MEMB      75              0.0000000000
     10837       127  POPC      H4R             8.2627641368      -23.0964319555      -11.9117235476  MEMB      75              0.0000000000
     10838       127  POPC      H4S             6.7154999520      -22.9453618030      -12.8010052473  MEMB      75              0.0000000000
     10839       127  POPC      C25             6.7807391698      -21.8073564499      -10.9803773481  MEMB      75              0.0000000000
     10840       127  POPC      H5R             6.0973093855      -21.0027625363      -11.3182108778  MEMB      75              0.0000000000
     10841       127  POPC      H5S             7.5213240418      -21.3509022217      -10.2939447847  MEMB      75              0.0000000000
     10842       127  POPC      C26             5.9337025603      -22.8472043069      -10.2418106831  MEMB      75              0.0000000000
     10843       127  POPC      H6R             5.2704282831      -23.3518547357      -10.9808196689  MEMB      75              0.0000000000
     10844       127  POPC      H6S             5.2835145073      -22.3312699658       -9.5034169747  MEMB      75              0.0000000000
     10845       127  POPC      C27             6.7489472907      -23.9221716611       -9.5230969412  MEMB      75              0.0000000000
     10846       127  POPC      H7R             7.4769919311      -24.3511618009      -10.2414930544  MEMB      75              0.0000000000
     10847       127  POPC      H7S             6.0692719545      -24.7508928733       -9.2273200356  MEMB      75              0.0000000000
     10848       127  POPC      C28             7.5142327622      -23.3983403626       -8.2996810109  MEMB      75              0.0000000000
     10849       127  POPC      H8R             8.1847507443      -22.5679709082       -8.6107744300  MEMB      75              0.0000000000
     10850       127  POPC      H8S             8.1762856316      -24.2230201542       -7.9539058437  MEMB      75              0.0000000000
     10851       127  POPC      C29             6.6270469349      -22.9484365901       -7.1697456483  MEMB      75              0.0000000000
     10852       127  POPC      H91             6.4750616826      -21.8617630043       -7.0803075578  MEMB      75              0.0000000000
     10853       127  POPC      C210            5.9841044916      -23.7659303963       -6.3235142585  MEMB      75              0.0000000000
     10854       127  POPC      H101            5.3884907883      -23.3227914156       -5.5120771995  MEMB      75              0.0000000000
     10855       127  POPC      C211            6.0138135690      -25.2731181649       -6.3331996903  MEMB      75              0.0000000000
     10856       127  POPC      H11R            6.4291087911      -25.6882219675       -7.2793563297  MEMB      75              0.0000000000
     10857       127  POPC      H11S            4.9712284429      -25.6536185528       -6.2791035913  MEMB      75              0.0000000000
     10858       127  POPC      C212            6.8030040216      -25.8758875458       -5.1592828164  MEMB      75              0.0000000000
     10859       127  POPC      H12R            7.0205542144      -25.1243861865       -4.3742333058  MEMB      75              0.0000000000
     10860       127  POPC      H12S            7.7871675110      -26.2165593022       -5.5575662119  MEMB      75              0.0000000000
     10861       127  POPC      C213            6.0849633193      -27.0812717624       -4.5335110203  MEMB      75              0.0000000000
     10862       127  POPC      H13R            6.8311619571      -27.7221312772       -4.0196530115  MEMB      75              0.0000000000
     10863       127  POPC      H13S            5.6534678220      -27.6637593153       -5.3734584841  MEMB      75              0.0000000000
     10864       127  POPC      C214            4.9427985852      -26.7628877558       -3.5516026799  MEMB      75              0.0000000000
     10865       127  POPC      H14R            4.5228671709      -27.7103302536       -3.1546699064  MEMB      75              0.0000000000
     10866       127  POPC      H14S            4.1185479907      -26.2749782375       -4.1051934883  MEMB      75              0.0000000000
     10867       127  POPC      C215            5.3178497968      -25.8928144391       -2.3490764872  MEMB      75              0.0000000000
     10868       127  POPC      H15R            5.8183017235      -24.9616955313       -2.6902007087  MEMB      75              0.0000000000
     10869       127  POPC      H15S            6.0310750072      -26.4490212685       -1.6997341325  MEMB      75              0.0000000000
     10870       127  POPC      C216            4.0683216364      -25.4990501227       -1.5490315044  MEMB      75              0.0000000000
     10871       127  POPC      H16R            3.6997366541      -26.3753333529       -0.9841646109  MEMB      75              0.0000000000
     10872       127  POPC      H16S            3.2529215314      -25.2055890963       -2.2459467157  MEMB      75              0.0000000000
     10873       127  POPC      C217            4.3207102291      -24.3739265118       -0.5489873335  MEMB      75              0.0000000000
     10874       127  POPC      H17R            3.4359170668      -24.2984966594        0.1248622362  MEMB      75              0.0000000000
     10875       127  POPC      H17S            4.4086096441      -23.4052370119       -1.0895660738  MEMB      75              0.0000000000
     10876       127  POPC      C218            5.5865109269      -24.5830004841        0.2754509413  MEMB      75              0.0000000000
     10877       127  POPC      H18R            5.7454056794      -25.6540606067        0.4996625080  MEMB      75              0.0000000000
     10878       127  POPC      H18S            5.4916177967      -24.0490181460        1.2413225539  MEMB      75              0.0000000000
     10879       127  POPC      H18T            6.4738700219      -24.2051568971       -0.2801909384  MEMB      75              0.0000000000
     10880       127  POPC      C33             8.5694380543      -26.9849110362      -11.3795174657  MEMB      75              0.0000000000
     10881       127  POPC      H3X             9.0773366664      -27.7477125443      -10.7445422442  MEMB      75              0.0000000000
     10882       127  POPC      H3Y             7.8597128994      -26.4325991937      -10.7267701859  MEMB      75              0.0000000000
     10883       127  POPC      C34             9.6384695311      -26.0504425055      -11.9585938199  MEMB      75              0.0000000000
     10884       127  POPC      H4X             9.1860462222      -25.4128479354      -12.7534692063  MEMB      75              0.0000000000
     10885       127  POPC      H4Y            10.4125096284      -26.6849232951      -12.4488821354  MEMB      75              0.0000000000
     10886       127  POPC      C35            10.3226721373      -25.1367097773      -10.9295988258  MEMB      75              0.0000000000
     10887       127  POPC      H5X             9.6160536657      -24.3361070300      -10.6199390674  MEMB      75              0.0000000000
     10888       127  POPC      H5Y            11.1867389479      -24.6436776277      -11.4278027303  MEMB      75              0.0000000000
     10889       127  POPC      C36            10.7962835039      -25.8735701212       -9.6688791606  MEMB      75              0.0000000000
     10890       127  POPC      H6X            11.2755995385      -26.8310274161       -9.9647871463  MEMB      75              0.0000000000
     10891       127  POPC      H6Y             9.9024949366      -26.1246094275       -9.0520889993  MEMB      75              0.0000000000
     10892       127  POPC      C37            11.7890004708      -25.0878951830       -8.7942236324  MEMB      75              0.0000000000
     10893       127  POPC      H7X            12.7845569935      -25.0478907446       -9.2900936389  MEMB      75              0.0000000000
     10894       127  POPC      H7Y            11.9146769759      -25.6499929609       -7.8419989463  MEMB      75              0.0000000000
     10895       127  POPC      C38            11.3485263906      -23.6508813454       -8.4811554258  MEMB      75              0.0000000000
     10896       127  POPC      H8X            10.2455214137      -23.6166759852       -8.3796451372  MEMB      75              0.0000000000
     10897       127  POPC      H8Y            11.6148078339      -23.0080854656       -9.3508537236  MEMB      75              0.0000000000
     10898       127  POPC      C39            11.9857637298      -23.0747545460       -7.2042826263  MEMB      75              0.0000000000
     10899       127  POPC      H9X            11.8569018153      -21.9683051418       -7.2129029498  MEMB      75              0.0000000000
     10900       127  POPC      H9Y            13.0769086784      -23.2818426229       -7.2253597317  MEMB      75              0.0000000000
     10901       127  POPC      C310           11.3741521384      -23.5950484673       -5.8870045345  MEMB      75              0.0000000000
     10902       127  POPC      H10X           11.9152240543      -23.1171457777       -5.0394274409  MEMB      75              0.0000000000
     10903       127  POPC      H10Y           11.5290689932      -24.6928784021       -5.7951147576  MEMB      75              0.0000000000
     10904       127  POPC      C311            9.8732799406      -23.2827254948       -5.7584717912  MEMB      75              0.0000000000
     10905       127  POPC      H11X            9.2976244013      -24.1635916015       -6.1215882638  MEMB      75              0.0000000000
     10906       127  POPC      H11Y            9.6240106159      -22.4215215038       -6.4192561042  MEMB      75              0.0000000000
     10907       127  POPC      C312            9.3943644781      -22.9440061229       -4.3382095586  MEMB      75              0.0000000000
     10908       127  POPC      H12X            8.3126258771      -22.6816399027       -4.3878441709  MEMB      75              0.0000000000
     10909       127  POPC      H12Y            9.9405354676      -22.0511406173       -3.9623834897  MEMB      75              0.0000000000
     10910       127  POPC      C313            9.5667469563      -24.1202933771       -3.3717438328  MEMB      75              0.0000000000
     10911       127  POPC      H13X           10.6528969325      -24.2905434656       -3.2086073141  MEMB      75              0.0000000000
     10912       127  POPC      H13Y            9.1611496205      -25.0389672253       -3.8488939417  MEMB      75              0.0000000000
     10913       127  POPC      C314            8.8657743136      -23.9307227179       -2.0181508703  MEMB      75              0.0000000000
     10914       127  POPC      H14X            9.0514046801      -24.8491218251       -1.4142113605  MEMB      75              0.0000000000
     10915       127  POPC      H14Y            7.7662295451      -23.8436078349       -2.1557626870  MEMB      75              0.0000000000
     10916       127  POPC      C315            9.3816472684      -22.7186061558       -1.2340974410  MEMB      75              0.0000000000
     10917       127  POPC      H15X            8.7936685324      -21.8183975713       -1.5082758974  MEMB      75              0.0000000000
     10918       127  POPC      H15Y           10.4304348870      -22.5108485147       -1.5419579871  MEMB      75              0.0000000000
     10919       127  POPC      C316            9.3639677292      -22.9416401174        0.2793088297  MEMB      75              0.0000000000
     10920       127  POPC      H16X            9.8171622887      -22.0788271340        0.8116289483  MEMB      75              0.0000000000
     10921       127  POPC      H16Y            9.9370847454      -23.8490804540        0.5443403055  MEMB      75              0.0000000000
     10922       127  POPC      H16Z            8.3270476021      -23.0838265020        0.6443533381  MEMB      75              0.0000000000
     10923       128  POPC      N              -0.1364964029      -24.9982126314      -17.5213433541  MEMB      76              0.0000000000
     10924       128  POPC      C12             0.9414499610      -25.2992839721      -18.5650036131  MEMB      76              0.0000000000
     10925       128  POPC      H12A            0.6783706127      -26.2123889132      -19.0947825158  MEMB      76              0.0000000000
     10926       128  POPC      H12B            1.8716844921      -25.5186772933      -18.0683244171  MEMB      76              0.0000000000
     10927       128  POPC      C13            -1.4340815293      -24.7627749691      -18.2194061299  MEMB      76              0.0000000000
     10928       128  POPC      H13A           -2.2340668193      -24.5208003923      -17.5345248720  MEMB      76              0.0000000000
     10929       128  POPC      H13B           -1.3266348334      -23.9967773437      -18.9873964546  MEMB      76              0.0000000000
     10930       128  POPC      H13C           -1.7618140376      -25.6437351758      -18.7590321629  MEMB      76              0.0000000000
     10931       128  POPC      C14            -0.2964715355      -26.1680194087      -16.6075348605  MEMB      76              0.0000000000
     10932       128  POPC      H14A            0.6481528327      -26.4607409693      -16.1626802760  MEMB      76              0.0000000000
     10933       128  POPC      H14B           -1.0062912353      -25.9536835492      -15.8173159153  MEMB      76              0.0000000000
     10934       128  POPC      H14C           -0.6716322876      -27.0259561591      -17.1614948117  MEMB      76              0.0000000000
     10935       128  POPC      C15             0.1942839692      -23.7644045972      -16.7425907787  MEMB      76              0.0000000000
     10936       128  POPC      H15A            0.2719659261      -22.9116410649      -17.4153116426  MEMB      76              0.0000000000
     10937       128  POPC      H15B            1.1279962268      -23.8544373100      -16.2060957085  MEMB      76              0.0000000000
     10938       128  POPC      H15C           -0.5816011004      -23.5534631738      -16.0129355363  MEMB      76              0.0000000000
     10939       128  POPC      C11             1.1963852536      -24.2454202706      -19.6722330166  MEMB      76              0.0000000000
     10940       128  POPC      H11A            2.0740162129      -24.5768365710      -20.2806312407  MEMB      76              0.0000000000
     10941       128  POPC      H11B            1.4493465446      -23.2656420020      -19.2173849132  MEMB      76              0.0000000000
     10942       128  POPC      P              -0.0663709099      -23.1640093002      -21.7191284850  MEMB      76              0.0000000000
     10943       128  POPC      O13            -1.4885672755      -23.0679365530      -22.1093381975  MEMB      76              0.0000000000
     10944       128  POPC      O14             0.9213137013      -23.5660068759      -22.7439280270  MEMB      76              0.0000000000
     10945       128  POPC      O12             0.0354977835      -24.1432288239      -20.4810861952  MEMB      76              0.0000000000
     10946       128  POPC      O11             0.3370905287      -21.7936209050      -21.0781136629  MEMB      76              0.0000000000
     10947       128  POPC      C1             -0.5413247052      -21.1412649271      -20.1758838066  MEMB      76              0.0000000000
     10948       128  POPC      HA             -0.8784183889      -21.8283952310      -19.3668194603  MEMB      76              0.0000000000
     10949       128  POPC      HB             -1.4357445496      -20.7876398895      -20.7349961194  MEMB      76              0.0000000000
     10950       128  POPC      C2              0.1385299187      -19.9201530887      -19.5044465871  MEMB      76              0.0000000000
     10951       128  POPC      HS              0.5379699524      -19.2441653794      -20.2951954128  MEMB      76              0.0000000000
     10952       128  POPC      O21             1.1759332216      -20.3465195437      -18.6016327074  MEMB      76              0.0000000000
     10953       128  POPC      C21             2.3265990203      -20.6639014266      -19.1884358572  MEMB      76              0.0000000000
     10954       128  POPC      O22             2.6115417078      -20.4873575606      -20.3548227588  MEMB      76              0.0000000000
     10955       128  POPC      C22             3.2806679310      -21.2652014482      -18.1459111663  MEMB      76              0.0000000000
     10956       128  POPC      H2R             4.2782814099      -20.8315580055      -18.3537517339  MEMB      76              0.0000000000
     10957       128  POPC      H2S             3.3267613247      -22.3619907478      -18.2941740665  MEMB      76              0.0000000000
     10958       128  POPC      C3             -0.9298118945      -19.1337403871      -18.7079925401  MEMB      76              0.0000000000
     10959       128  POPC      HX             -1.6912493725      -18.7865542282      -19.4445906052  MEMB      76              0.0000000000
     10960       128  POPC      HY             -0.4505757905      -18.2281513829      -18.2652650177  MEMB      76              0.0000000000
     10961       128  POPC      O31            -1.5613900713      -20.0165968957      -17.7494178933  MEMB      76              0.0000000000
     10962       128  POPC      C31            -1.3866847815      -19.7264432141      -16.4694871879  MEMB      76              0.0000000000
     10963       128  POPC      O32            -0.9059971348      -18.6979902582      -16.0380359923  MEMB      76              0.0000000000
     10964       128  POPC      C32            -1.9458001437      -20.8773461133      -15.6150624272  MEMB      76              0.0000000000
     10965       128  POPC      H2X            -1.5933860427      -21.8288709811      -16.0536090249  MEMB      76              0.0000000000
     10966       128  POPC      H2Y            -3.0520199566      -20.8449337684      -15.6934510166  MEMB      76              0.0000000000
     10967       128  POPC      C23             2.8847213111      -20.8943103155      -16.7054145972  MEMB      76              0.0000000000
     10968       128  POPC      H3R             1.8849845778      -21.3261198199      -16.4690754177  MEMB      76              0.0000000000
     10969       128  POPC      H3S             2.7965463356      -19.7821676201      -16.6255276355  MEMB      76              0.0000000000
     10970       128  POPC      C24             3.8646068802      -21.3543111100      -15.6255686589  MEMB      76              0.0000000000
     10971       128  POPC      H4R             4.7951249328      -20.7407712671      -15.6681565476  MEMB      76              0.0000000000
     10972       128  POPC      H4S             4.1518983312      -22.4177632366      -15.7718298809  MEMB      76              0.0000000000
     10973       128  POPC      C25             3.1506661211      -21.1830519383      -14.2842070337  MEMB      76              0.0000000000
     10974       128  POPC      H5R             2.2131308715      -21.7786282243      -14.3188383306  MEMB      76              0.0000000000
     10975       128  POPC      H5S             2.8458183526      -20.1169566075      -14.1683971235  MEMB      76              0.0000000000
     10976       128  POPC      C26             3.9507373058      -21.5936192413      -13.0539003312  MEMB      76              0.0000000000
     10977       128  POPC      H6R             4.8428536324      -20.9308849903      -12.9989925046  MEMB      76              0.0000000000
     10978       128  POPC      H6S             4.3083838522      -22.6421857538      -13.1410315134  MEMB      76              0.0000000000
     10979       128  POPC      C27             3.1168727091      -21.4100010442      -11.7775110186  MEMB      76              0.0000000000
     10980       128  POPC      H7R             2.6863973100      -20.3895657709      -11.8016453804  MEMB      76              0.0000000000
     10981       128  POPC      H7S             3.7728349287      -21.4513211049      -10.8844424520  MEMB      76              0.0000000000
     10982       128  POPC      C28             1.9611131540      -22.4144363210      -11.6016448146  MEMB      76              0.0000000000
     10983       128  POPC      H8R             1.3438023938      -22.4686309386      -12.5211225159  MEMB      76              0.0000000000
     10984       128  POPC      H8S             1.3001059144      -21.9791008193      -10.8201106117  MEMB      76              0.0000000000
     10985       128  POPC      C29             2.4128480145      -23.7964743369      -11.2018846618  MEMB      76              0.0000000000
     10986       128  POPC      H91             2.5984753310      -24.5044545361      -12.0246220978  MEMB      76              0.0000000000
     10987       128  POPC      C210            2.6541661219      -24.1818572500       -9.9369958439  MEMB      76              0.0000000000
     10988       128  POPC      H101            2.9935052663      -25.2098741040       -9.7367019236  MEMB      76              0.0000000000
     10989       128  POPC      C211            2.5128160146      -23.2947998095       -8.7283417312  MEMB      76              0.0000000000
     10990       128  POPC      H11R            1.6302181237      -22.6304712737       -8.8030621014  MEMB      76              0.0000000000
     10991       128  POPC      H11S            3.3933560724      -22.6208071521       -8.6610876469  MEMB      76              0.0000000000
     10992       128  POPC      C212            2.4256956195      -24.0758462450       -7.4105468333  MEMB      76              0.0000000000
     10993       128  POPC      H12R            3.2695916287      -24.8020406872       -7.3713297962  MEMB      76              0.0000000000
     10994       128  POPC      H12S            1.4779010700      -24.6532615155       -7.3519085353  MEMB      76              0.0000000000
     10995       128  POPC      C213            2.5491255331      -23.1206977013       -6.2177780695  MEMB      76              0.0000000000
     10996       128  POPC      H13R            1.6731080294      -22.4496878936       -6.1532280530  MEMB      76              0.0000000000
     10997       128  POPC      H13S            3.4292914631      -22.4663865075       -6.4102529283  MEMB      76              0.0000000000
     10998       128  POPC      C214            2.7670288705      -23.8368157645       -4.8831927579  MEMB      76              0.0000000000
     10999       128  POPC      H14R            3.5432950648      -24.6064851832       -5.0593963912  MEMB      76              0.0000000000
     11000       128  POPC      H14S            1.8476645555      -24.3653791136       -4.5517299059  MEMB      76              0.0000000000
     11001       128  POPC      C215            3.2780979501      -22.8844297193       -3.7940315085  MEMB      76              0.0000000000
     11002       128  POPC      H15R            3.7930939586      -22.0296762903       -4.2840970330  MEMB      76              0.0000000000
     11003       128  POPC      H15S            4.0434589225      -23.3893012322       -3.1749251190  MEMB      76              0.0000000000
     11004       128  POPC      C216            2.1413760239      -22.3646945762       -2.9085882742  MEMB      76              0.0000000000
     11005       128  POPC      H16R            1.7332539415      -23.1641738504       -2.2565447694  MEMB      76              0.0000000000
     11006       128  POPC      H16S            1.3474699544      -22.0722188512       -3.6293628997  MEMB      76              0.0000000000
     11007       128  POPC      C217            2.5136471598      -21.1148882704       -2.1021805260  MEMB      76              0.0000000000
     11008       128  POPC      H17R            1.8398188321      -20.2886263802       -2.4305155285  MEMB      76              0.0000000000
     11009       128  POPC      H17S            3.5487508397      -20.8540217405       -2.4027075617  MEMB      76              0.0000000000
     11010       128  POPC      C218            2.4697090540      -21.1811244268       -0.5746490752  MEMB      76              0.0000000000
     11011       128  POPC      H18R            2.8874976614      -22.1285646168       -0.1880222234  MEMB      76              0.0000000000
     11012       128  POPC      H18S            1.4336425160      -21.0883286970       -0.2075691083  MEMB      76              0.0000000000
     11013       128  POPC      H18T            3.0439176064      -20.3369760501       -0.1352534935  MEMB      76              0.0000000000
     11014       128  POPC      C33            -1.5410151730      -20.8054062785      -14.1204136300  MEMB      76              0.0000000000
     11015       128  POPC      H3X            -1.9771850745      -19.8844697453      -13.6685220328  MEMB      76              0.0000000000
     11016       128  POPC      H3Y            -0.4317538183      -20.7291698544      -14.0286728445  MEMB      76              0.0000000000
     11017       128  POPC      C34            -2.0028375065      -22.0198303153      -13.2925082835  MEMB      76              0.0000000000
     11018       128  POPC      H4X            -1.4734175480      -22.9293324444      -13.6527272448  MEMB      76              0.0000000000
     11019       128  POPC      H4Y            -3.0940320860      -22.1851094142      -13.4358091194  MEMB      76              0.0000000000
     11020       128  POPC      C35            -1.7172809671      -21.8428606187      -11.7883129614  MEMB      76              0.0000000000
     11021       128  POPC      H5X            -2.3352188514      -21.0053662048      -11.3984908764  MEMB      76              0.0000000000
     11022       128  POPC      H5Y            -0.6554467226      -21.5462440175      -11.6582847770  MEMB      76              0.0000000000
     11023       128  POPC      C36            -1.9776772742      -23.1034500216      -10.9422330473  MEMB      76              0.0000000000
     11024       128  POPC      H6X            -1.5590297846      -23.9842892726      -11.4801317791  MEMB      76              0.0000000000
     11025       128  POPC      H6Y            -3.0695616200      -23.2671088579      -10.8300075115  MEMB      76              0.0000000000
     11026       128  POPC      C37            -1.3131427096      -23.0780516467       -9.5540616434  MEMB      76              0.0000000000
     11027       128  POPC      H7X            -0.2245516880      -22.9646050693       -9.7300443875  MEMB      76              0.0000000000
     11028       128  POPC      H7Y            -1.4490058498      -24.0602747573       -9.0475902701  MEMB      76              0.0000000000
     11029       128  POPC      C38            -1.7720201485      -21.9613973871       -8.6012834584  MEMB      76              0.0000000000
     11030       128  POPC      H8X            -2.5946940900      -22.3422268594       -7.9564589698  MEMB      76              0.0000000000
     11031       128  POPC      H8Y            -2.1527944542      -21.0864725743       -9.1677446827  MEMB      76              0.0000000000
     11032       128  POPC      C39            -0.6168848962      -21.4507769685       -7.7369387165  MEMB      76              0.0000000000
     11033       128  POPC      H9X             0.0112706278      -20.7801698860       -8.3642774750  MEMB      76              0.0000000000
     11034       128  POPC      H9Y             0.0095624970      -22.3200463414       -7.4463474977  MEMB      76              0.0000000000
     11035       128  POPC      C310           -1.0535888932      -20.7160828489       -6.4667220056  MEMB      76              0.0000000000
     11036       128  POPC      H10X           -2.0529502948      -20.2504500798       -6.6060570689  MEMB      76              0.0000000000
     11037       128  POPC      H10Y           -0.3271233300      -19.8998312601       -6.2559488419  MEMB      76              0.0000000000
     11038       128  POPC      C311           -1.0705001291      -21.6582629509       -5.2622600561  MEMB      76              0.0000000000
     11039       128  POPC      H11X           -0.1896963975      -22.3350807615       -5.2903202354  MEMB      76              0.0000000000
     11040       128  POPC      H11Y           -1.9662495437      -22.3130116830       -5.3316281543  MEMB      76              0.0000000000
     11041       128  POPC      C312           -1.0307770765      -20.9314898041       -3.9151581412  MEMB      76              0.0000000000
     11042       128  POPC      H12X           -1.8178901556      -20.1493665968       -3.8896504366  MEMB      76              0.0000000000
     11043       128  POPC      H12Y           -0.0600968860      -20.4053725950       -3.7937144201  MEMB      76              0.0000000000
     11044       128  POPC      C313           -1.2429010684      -21.9513146741       -2.7911287954  MEMB      76              0.0000000000
     11045       128  POPC      H13X           -0.4713499379      -22.7465645440       -2.8374978657  MEMB      76              0.0000000000
     11046       128  POPC      H13Y           -2.1979902269      -22.4659678423       -2.9805981384  MEMB      76              0.0000000000
     11047       128  POPC      C314           -1.2985702104      -21.3737287888       -1.3791187864  MEMB      76              0.0000000000
     11048       128  POPC      H14X           -1.9958828208      -20.5137328543       -1.3374830777  MEMB      76              0.0000000000
     11049       128  POPC      H14Y           -0.2994183175      -20.9769748154       -1.1254876945  MEMB      76              0.0000000000
     11050       128  POPC      C315           -1.7219049494      -22.4404904308       -0.3576371264  MEMB      76              0.0000000000
     11051       128  POPC      H15X           -1.6177090566      -22.0230420891        0.6669372600  MEMB      76              0.0000000000
     11052       128  POPC      H15Y           -1.0125930484      -23.2945502154       -0.4382594504  MEMB      76              0.0000000000
     11053       128  POPC      C316           -3.1546732256      -22.9647266395       -0.5317353374  MEMB      76              0.0000000000
     11054       128  POPC      H16X           -3.2768593168      -23.4886043352       -1.5025529096  MEMB      76              0.0000000000
     11055       128  POPC      H16Y           -3.8777362471      -22.1242657265       -0.5017568440  MEMB      76              0.0000000000
     11056       128  POPC      H16Z           -3.4159217453      -23.6784303941        0.2770515181  MEMB      76              0.0000000000
     11057       129  POPC      N             -10.3517773040      -23.6306208023      -20.1983290924  MEMB      77              0.0000000000
     11058       129  POPC      C12            -9.9175158086      -24.0553057552      -18.8144780730  MEMB      77              0.0000000000
     11059       129  POPC      H12A          -10.6668159699      -23.7067875219      -18.1082255399  MEMB      77              0.0000000000
     11060       129  POPC      H12B           -8.9720909264      -23.5682799865      -18.5942793928  MEMB      77              0.0000000000
     11061       129  POPC      C13            -9.3535135272      -24.1051669923      -21.2057137145  MEMB      77              0.0000000000
     11062       129  POPC      H13A           -9.6720960183      -23.8672187617      -22.2079342313  MEMB      77              0.0000000000
     11063       129  POPC      H13B           -8.3733487172      -23.6601616639      -21.0351917214  MEMB      77              0.0000000000
     11064       129  POPC      H13C           -9.2116431878      -25.1793064156      -21.0829872030  MEMB      77              0.0000000000
     11065       129  POPC      C14           -11.6858570000      -24.2610595911      -20.4597441690  MEMB      77              0.0000000000
     11066       129  POPC      H14A          -11.6057656651      -25.3435927589      -20.3567616870  MEMB      77              0.0000000000
     11067       129  POPC      H14B          -12.4704670023      -23.8760823718      -19.8070299996  MEMB      77              0.0000000000
     11068       129  POPC      H14C          -12.0128845922      -24.0984939180      -21.4807477713  MEMB      77              0.0000000000
     11069       129  POPC      C15           -10.5115093559      -22.1535696527      -20.3215720150  MEMB      77              0.0000000000
     11070       129  POPC      H15A          -10.8953910719      -21.9191857385      -21.3130063404  MEMB      77              0.0000000000
     11071       129  POPC      H15B           -9.5998744959      -21.5969820113      -20.1464404060  MEMB      77              0.0000000000
     11072       129  POPC      H15C          -11.2996534299      -21.8154969380      -19.6563330404  MEMB      77              0.0000000000
     11073       129  POPC      C11            -9.6787200953      -25.5691403658      -18.5511800424  MEMB      77              0.0000000000
     11074       129  POPC      H11A          -10.5625249226      -26.1516377770      -18.8922873886  MEMB      77              0.0000000000
     11075       129  POPC      H11B           -9.6030546871      -25.7486914111      -17.4511618895  MEMB      77              0.0000000000
     11076       129  POPC      P              -7.0667272920      -25.9336979303      -18.5850507663  MEMB      77              0.0000000000
     11077       129  POPC      O13            -6.1433081368      -26.7532326275      -19.3968545097  MEMB      77              0.0000000000
     11078       129  POPC      O14            -7.1204077679      -26.1720449205      -17.1291298145  MEMB      77              0.0000000000
     11079       129  POPC      O12            -8.5210852390      -26.0430990384      -19.2304065622  MEMB      77              0.0000000000
     11080       129  POPC      O11            -6.6960004202      -24.4205411344      -18.8277416703  MEMB      77              0.0000000000
     11081       129  POPC      C1             -5.3257659346      -24.0802490161      -19.1190725923  MEMB      77              0.0000000000
     11082       129  POPC      HA             -5.3000961971      -23.5327797730      -20.0873394029  MEMB      77              0.0000000000
     11083       129  POPC      HB             -4.6459388774      -24.9548116335      -19.2638936749  MEMB      77              0.0000000000
     11084       129  POPC      C2             -4.6895525467      -23.1331245966      -18.0565414141  MEMB      77              0.0000000000
     11085       129  POPC      HS             -3.6506496208      -22.9274639487      -18.3973351835  MEMB      77              0.0000000000
     11086       129  POPC      O21            -4.6437529654      -23.6325591096      -16.7125723920  MEMB      77              0.0000000000
     11087       129  POPC      C21            -4.3948171640      -24.8818446311      -16.3585383398  MEMB      77              0.0000000000
     11088       129  POPC      O22            -3.8538125174      -25.7373492836      -17.0363320593  MEMB      77              0.0000000000
     11089       129  POPC      C22            -4.5672859552      -24.9445419779      -14.8251938518  MEMB      77              0.0000000000
     11090       129  POPC      H2R            -5.2168745305      -24.1043441688      -14.5122725845  MEMB      77              0.0000000000
     11091       129  POPC      H2S            -3.5673808721      -24.7670726701      -14.3870623655  MEMB      77              0.0000000000
     11092       129  POPC      C3             -5.4231383055      -21.7504374388      -18.0051244153  MEMB      77              0.0000000000
     11093       129  POPC      HX             -5.3496109603      -21.2913816184      -19.0160635648  MEMB      77              0.0000000000
     11094       129  POPC      HY             -4.9003150621      -21.0754670138      -17.2934682303  MEMB      77              0.0000000000
     11095       129  POPC      O31            -6.8197510221      -21.8654114258      -17.6749708693  MEMB      77              0.0000000000
     11096       129  POPC      C31            -7.0779776209      -22.2133329993      -16.4180279484  MEMB      77              0.0000000000
     11097       129  POPC      O32            -6.3509624918      -22.0103238711      -15.4628191571  MEMB      77              0.0000000000
     11098       129  POPC      C32            -8.4385317791      -22.9320094270      -16.3945861624  MEMB      77              0.0000000000
     11099       129  POPC      H2X            -8.2449228805      -23.8936784244      -16.9059216578  MEMB      77              0.0000000000
     11100       129  POPC      H2Y            -9.1609516675      -22.3506854449      -16.9891839090  MEMB      77              0.0000000000
     11101       129  POPC      C23            -5.1484075406      -26.2675491426      -14.2679317488  MEMB      77              0.0000000000
     11102       129  POPC      H3R            -4.5185770345      -27.1218210221      -14.5986439347  MEMB      77              0.0000000000
     11103       129  POPC      H3S            -6.1655511417      -26.4196946726      -14.6998594935  MEMB      77              0.0000000000
     11104       129  POPC      C24            -5.2647735596      -26.3003781045      -12.7252013494  MEMB      77              0.0000000000
     11105       129  POPC      H4R            -5.6341242912      -27.3088093705      -12.4297109356  MEMB      77              0.0000000000
     11106       129  POPC      H4S            -6.0283907756      -25.5570713018      -12.4047264635  MEMB      77              0.0000000000
     11107       129  POPC      C25            -3.9450131385      -26.0097213387      -11.9883487169  MEMB      77              0.0000000000
     11108       129  POPC      H5R            -3.6675560286      -24.9488564316      -12.1716873007  MEMB      77              0.0000000000
     11109       129  POPC      H5S            -3.1463542758      -26.6512229672      -12.4240722410  MEMB      77              0.0000000000
     11110       129  POPC      C26            -3.9671841985      -26.2537876983      -10.4653568325  MEMB      77              0.0000000000
     11111       129  POPC      H6R            -2.9426539259      -26.0414104762      -10.0816482241  MEMB      77              0.0000000000
     11112       129  POPC      H6S            -4.1889231158      -27.3189889810      -10.2495743008  MEMB      77              0.0000000000
     11113       129  POPC      C27            -4.9776369541      -25.4003787717       -9.6840754684  MEMB      77              0.0000000000
     11114       129  POPC      H7R            -5.9493495431      -25.9374090287       -9.6250030901  MEMB      77              0.0000000000
     11115       129  POPC      H7S            -5.1539441048      -24.4662129695      -10.2637138735  MEMB      77              0.0000000000
     11116       129  POPC      C28            -4.5038035827      -25.0006627577       -8.2652746589  MEMB      77              0.0000000000
     11117       129  POPC      H8R            -5.3138554533      -24.3943866921       -7.8038153939  MEMB      77              0.0000000000
     11118       129  POPC      H8S            -3.6482335524      -24.3037355915       -8.3935223796  MEMB      77              0.0000000000
     11119       129  POPC      C29            -4.0566230891      -26.1305191508       -7.3647474978  MEMB      77              0.0000000000
     11120       129  POPC      H91            -3.2402845801      -26.7443802632       -7.7764935742  MEMB      77              0.0000000000
     11121       129  POPC      C210           -4.5672298478      -26.4844876747       -6.1682772868  MEMB      77              0.0000000000
     11122       129  POPC      H101           -4.1245501965      -27.3487147411       -5.6459961476  MEMB      77              0.0000000000
     11123       129  POPC      C211           -5.7182762717      -25.8423597400       -5.4363225617  MEMB      77              0.0000000000
     11124       129  POPC      H11R           -6.5024768898      -26.6107910508       -5.2519381735  MEMB      77              0.0000000000
     11125       129  POPC      H11S           -6.2183154054      -25.0801199263       -6.0700809981  MEMB      77              0.0000000000
     11126       129  POPC      C212           -5.3854059729      -25.2040703861       -4.0721604146  MEMB      77              0.0000000000
     11127       129  POPC      H12R           -4.3363071073      -25.3739383790       -3.7489756784  MEMB      77              0.0000000000
     11128       129  POPC      H12S           -6.0308407189      -25.7021791449       -3.3091821628  MEMB      77              0.0000000000
     11129       129  POPC      C213           -5.7281225571      -23.7059989884       -4.0417467674  MEMB      77              0.0000000000
     11130       129  POPC      H13R           -6.1006762997      -23.4730320202       -3.0234765258  MEMB      77              0.0000000000
     11131       129  POPC      H13S           -6.5473608523      -23.5227447307       -4.7591694083  MEMB      77              0.0000000000
     11132       129  POPC      C214           -4.5649815777      -22.7875224152       -4.4170045913  MEMB      77              0.0000000000
     11133       129  POPC      H14R           -4.4598083297      -22.7754693143       -5.5261165042  MEMB      77              0.0000000000
     11134       129  POPC      H14S           -3.6410526026      -23.2650230118       -4.0368741267  MEMB      77              0.0000000000
     11135       129  POPC      C215           -4.6323704649      -21.3268433274       -3.9126495843  MEMB      77              0.0000000000
     11136       129  POPC      H15R           -4.8988486110      -20.6595173883       -4.7453142640  MEMB      77              0.0000000000
     11137       129  POPC      H15S           -3.6110091191      -21.0251769518       -3.6270019320  MEMB      77              0.0000000000
     11138       129  POPC      C216           -5.5220475640      -20.9811083489       -2.7125521729  MEMB      77              0.0000000000
     11139       129  POPC      H16R           -5.5203451856      -21.8188240789       -1.9891573747  MEMB      77              0.0000000000
     11140       129  POPC      H16S           -6.5691329693      -20.8174285191       -3.0540170316  MEMB      77              0.0000000000
     11141       129  POPC      C217           -4.9999449793      -19.7440071435       -1.9642105675  MEMB      77              0.0000000000
     11142       129  POPC      H17R           -4.9363320318      -18.8767147391       -2.6535574651  MEMB      77              0.0000000000
     11143       129  POPC      H17S           -3.9620761984      -19.9492202111       -1.6279587115  MEMB      77              0.0000000000
     11144       129  POPC      C218           -5.8328576690      -19.3758942253       -0.7435580221  MEMB      77              0.0000000000
     11145       129  POPC      H18R           -5.7021578004      -18.3102122821       -0.4609136550  MEMB      77              0.0000000000
     11146       129  POPC      H18S           -5.5523235614      -20.0116812529        0.1177192600  MEMB      77              0.0000000000
     11147       129  POPC      H18T           -6.9084263136      -19.5667893378       -0.9274488745  MEMB      77              0.0000000000
     11148       129  POPC      C33            -9.0919941323      -23.2993899578      -15.0454808135  MEMB      77              0.0000000000
     11149       129  POPC      H3X           -10.1523846971      -23.5881335180      -15.2524456197  MEMB      77              0.0000000000
     11150       129  POPC      H3Y            -9.1088326525      -22.4500360634      -14.3322235841  MEMB      77              0.0000000000
     11151       129  POPC      C34            -8.4309120396      -24.5349370335      -14.4357290162  MEMB      77              0.0000000000
     11152       129  POPC      H4X            -7.3881194829      -24.2725452529      -14.1528019874  MEMB      77              0.0000000000
     11153       129  POPC      H4Y            -8.3731696240      -25.3440053038      -15.1999086441  MEMB      77              0.0000000000
     11154       129  POPC      C35            -9.1778673227      -25.0649840866      -13.2150918243  MEMB      77              0.0000000000
     11155       129  POPC      H5X            -8.6545070828      -25.9753951715      -12.8411545566  MEMB      77              0.0000000000
     11156       129  POPC      H5Y           -10.2045398492      -25.3729352419      -13.5079074755  MEMB      77              0.0000000000
     11157       129  POPC      C36            -9.2375620532      -24.0245356747      -12.0926302042  MEMB      77              0.0000000000
     11158       129  POPC      H6X           -10.1486081702      -23.3950622621      -12.1877268864  MEMB      77              0.0000000000
     11159       129  POPC      H6Y            -8.3603168976      -23.3444856328      -12.1971036051  MEMB      77              0.0000000000
     11160       129  POPC      C37            -9.1733215952      -24.6603315920      -10.7038439459  MEMB      77              0.0000000000
     11161       129  POPC      H7X            -8.2452654768      -25.2721940528      -10.6311104011  MEMB      77              0.0000000000
     11162       129  POPC      H7Y           -10.0425056140      -25.3366223884      -10.5562743240  MEMB      77              0.0000000000
     11163       129  POPC      C38            -9.1507895094      -23.5880427573       -9.6178153761  MEMB      77              0.0000000000
     11164       129  POPC      H8X           -10.0945936076      -23.0000486493       -9.6587450450  MEMB      77              0.0000000000
     11165       129  POPC      H8Y            -8.3095081158      -22.8904741574       -9.8168551231  MEMB      77              0.0000000000
     11166       129  POPC      C39            -8.9712929378      -24.1568941441       -8.2165348927  MEMB      77              0.0000000000
     11167       129  POPC      H9X            -8.0772473763      -24.8205134656       -8.1805153072  MEMB      77              0.0000000000
     11168       129  POPC      H9Y            -9.8618759544      -24.7769387105       -7.9653505608  MEMB      77              0.0000000000
     11169       129  POPC      C310           -8.8123490125      -23.0345982187       -7.1867097612  MEMB      77              0.0000000000
     11170       129  POPC      H10X           -9.4868826534      -22.1922839927       -7.4392196158  MEMB      77              0.0000000000
     11171       129  POPC      H10Y           -7.7706788803      -22.6547372446       -7.2150397515  MEMB      77              0.0000000000
     11172       129  POPC      C311           -9.1640546356      -23.5405258378       -5.7961614739  MEMB      77              0.0000000000
     11173       129  POPC      H11X           -8.5095064113      -24.4217023420       -5.6053758194  MEMB      77              0.0000000000
     11174       129  POPC      H11Y          -10.2197390821      -23.8975844830       -5.8173240516  MEMB      77              0.0000000000
     11175       129  POPC      C312           -9.0272638025      -22.5174156850       -4.6578285453  MEMB      77              0.0000000000
     11176       129  POPC      H12X           -9.5203275347      -21.5667511043       -4.9109657407  MEMB      77              0.0000000000
     11177       129  POPC      H12Y           -7.9676691725      -22.2352390842       -4.5099012794  MEMB      77              0.0000000000
     11178       129  POPC      C313           -9.6032323382      -23.0679105729       -3.3430629838  MEMB      77              0.0000000000
     11179       129  POPC      H13X          -10.7087004591      -22.9384064119       -3.3406328043  MEMB      77              0.0000000000
     11180       129  POPC      H13Y           -9.1828162996      -22.4815535173       -2.4953594261  MEMB      77              0.0000000000
     11181       129  POPC      C314           -9.2648943953      -24.5567744053       -3.1894193119  MEMB      77              0.0000000000
     11182       129  POPC      H14X           -8.1842344197      -24.6739831592       -3.4296119545  MEMB      77              0.0000000000
     11183       129  POPC      H14Y           -9.8339032114      -25.1651988725       -3.9280760703  MEMB      77              0.0000000000
     11184       129  POPC      C315           -9.4834201529      -25.1778227685       -1.8160468516  MEMB      77              0.0000000000
     11185       129  POPC      H15X          -10.4369262285      -25.7532426429       -1.8317827361  MEMB      77              0.0000000000
     11186       129  POPC      H15Y           -9.6020658655      -24.3887168804       -1.0458389436  MEMB      77              0.0000000000
     11187       129  POPC      C316           -8.3219032424      -26.1125792360       -1.4546698709  MEMB      77              0.0000000000
     11188       129  POPC      H16X           -7.4478236709      -25.5331146436       -1.0894793662  MEMB      77              0.0000000000
     11189       129  POPC      H16Y           -8.0018638638      -26.6841288224       -2.3528703440  MEMB      77              0.0000000000
     11190       129  POPC      H16Z           -8.6227782276      -26.8433496306       -0.6761892400  MEMB      77              0.0000000000
     11191       130  POPC      N              19.9838340406      -21.9613448821      -20.6422109405  MEMB      78              0.0000000000
     11192       130  POPC      C12            18.7122000795      -21.2343531475      -21.0889698032  MEMB      78              0.0000000000
     11193       130  POPC      H12A           18.5810766988      -21.3627771624      -22.1547225240  MEMB      78              0.0000000000
     11194       130  POPC      H12B           18.8119600317      -20.1723207023      -20.8945869803  MEMB      78              0.0000000000
     11195       130  POPC      C13            19.6703080901      -23.4247113222      -20.5600619046  MEMB      78              0.0000000000
     11196       130  POPC      H13A           19.3354469726      -23.7804822016      -21.5203357093  MEMB      78              0.0000000000
     11197       130  POPC      H13B           20.5206362459      -24.0024829594      -20.2275306840  MEMB      78              0.0000000000
     11198       130  POPC      H13C           18.8648327793      -23.5507560045      -19.8359931374  MEMB      78              0.0000000000
     11199       130  POPC      C14            21.1192892385      -21.7686520745      -21.5872615181  MEMB      78              0.0000000000
     11200       130  POPC      H14A           21.3971961410      -20.7341079075      -21.7183716655  MEMB      78              0.0000000000
     11201       130  POPC      H14B           22.0188726278      -22.2836247922      -21.2524291696  MEMB      78              0.0000000000
     11202       130  POPC      H14C           20.8938654437      -22.1742992314      -22.5668661537  MEMB      78              0.0000000000
     11203       130  POPC      C15            20.3829978746      -21.5273541490      -19.2692086174  MEMB      78              0.0000000000
     11204       130  POPC      H15A           19.4934969990      -21.5053815187      -18.6275066404  MEMB      78              0.0000000000
     11205       130  POPC      H15B           20.7845986124      -20.5353712412      -19.2198242256  MEMB      78              0.0000000000
     11206       130  POPC      H15C           21.0281552033      -22.2446405070      -18.7742655489  MEMB      78              0.0000000000
     11207       130  POPC      C11            17.3738694781      -21.6721222176      -20.4408208165  MEMB      78              0.0000000000
     11208       130  POPC      H11A           16.9867709344      -22.6015717198      -20.9106665287  MEMB      78              0.0000000000
     11209       130  POPC      H11B           16.6039407253      -20.8791813133      -20.6027314358  MEMB      78              0.0000000000
     11210       130  POPC      P              17.1993403261      -20.9998016591      -17.8980546712  MEMB      78              0.0000000000
     11211       130  POPC      O13            15.8466920770      -20.4702828803      -18.1424500703  MEMB      78              0.0000000000
     11212       130  POPC      O14            18.3369127570      -20.0485718681      -17.8021563139  MEMB      78              0.0000000000
     11213       130  POPC      O12            17.5542683920      -21.9653879152      -19.0806231694  MEMB      78              0.0000000000
     11214       130  POPC      O11            17.2692504498      -22.0705648367      -16.7261489554  MEMB      78              0.0000000000
     11215       130  POPC      C1             17.5027033746      -23.4451001036      -17.0981595828  MEMB      78              0.0000000000
     11216       130  POPC      HA             18.4512782350      -23.5682496474      -17.6680143235  MEMB      78              0.0000000000
     11217       130  POPC      HB             16.6685674903      -23.8317429336      -17.7368718439  MEMB      78              0.0000000000
     11218       130  POPC      C2             17.5992265998      -24.3692985026      -15.8693982751  MEMB      78              0.0000000000
     11219       130  POPC      HS             17.1008361724      -25.3234194223      -16.1623078543  MEMB      78              0.0000000000
     11220       130  POPC      O21            16.9366152082      -23.7691720633      -14.7548111200  MEMB      78              0.0000000000
     11221       130  POPC      C21            15.6218439365      -23.7355566044      -14.8815050051  MEMB      78              0.0000000000
     11222       130  POPC      O22            14.9757896342      -24.3819159116      -15.6895357104  MEMB      78              0.0000000000
     11223       130  POPC      C22            15.0519788075      -22.9059605203      -13.7085947615  MEMB      78              0.0000000000
     11224       130  POPC      H2R            14.1945133833      -23.4779642491      -13.3056141237  MEMB      78              0.0000000000
     11225       130  POPC      H2S            14.6699108248      -21.9669938917      -14.1607055132  MEMB      78              0.0000000000
     11226       130  POPC      C3             19.0658445212      -24.7011062893      -15.4528769751  MEMB      78              0.0000000000
     11227       130  POPC      HX             19.6318492189      -25.1223415670      -16.3142994576  MEMB      78              0.0000000000
     11228       130  POPC      HY             19.0428491588      -25.4896128571      -14.6706918047  MEMB      78              0.0000000000
     11229       130  POPC      O31            19.7005283227      -23.5632346404      -14.8644747081  MEMB      78              0.0000000000
     11230       130  POPC      C31            20.3041859927      -22.7357720142      -15.6902541721  MEMB      78              0.0000000000
     11231       130  POPC      O32            20.6984387435      -23.0098885492      -16.8152535962  MEMB      78              0.0000000000
     11232       130  POPC      C32            20.4605400996      -21.3667073202      -15.0255925122  MEMB      78              0.0000000000
     11233       130  POPC      H2X            19.8002216384      -20.6684442580      -15.5864130141  MEMB      78              0.0000000000
     11234       130  POPC      H2Y            21.5132711207      -21.0462582624      -15.1443260864  MEMB      78              0.0000000000
     11235       130  POPC      C23            16.0493063354      -22.5481335694      -12.5558995716  MEMB      78              0.0000000000
     11236       130  POPC      H3R            15.5067302352      -21.9336835367      -11.8051798918  MEMB      78              0.0000000000
     11237       130  POPC      H3S            16.8716787528      -21.9173892960      -12.9620783945  MEMB      78              0.0000000000
     11238       130  POPC      C24            16.6564656069      -23.7640175666      -11.8230075272  MEMB      78              0.0000000000
     11239       130  POPC      H4R            17.4087068344      -24.2112990667      -12.5096039563  MEMB      78              0.0000000000
     11240       130  POPC      H4S            15.8614363432      -24.5025745346      -11.5938301753  MEMB      78              0.0000000000
     11241       130  POPC      C25            17.4369790072      -23.4540288556      -10.5424911560  MEMB      78              0.0000000000
     11242       130  POPC      H5R            16.7517247920      -23.3114671000       -9.6819958396  MEMB      78              0.0000000000
     11243       130  POPC      H5S            17.9482242517      -22.4835283007      -10.7352301396  MEMB      78              0.0000000000
     11244       130  POPC      C26            18.5607384027      -24.4654025086      -10.2050892398  MEMB      78              0.0000000000
     11245       130  POPC      H6R            19.2594466786      -23.9516492311       -9.5064057817  MEMB      78              0.0000000000
     11246       130  POPC      H6S            19.1454522119      -24.6788850980      -11.1275386065  MEMB      78              0.0000000000
     11247       130  POPC      C27            18.1541377623      -25.8061545513       -9.5534594120  MEMB      78              0.0000000000
     11248       130  POPC      H7R            19.0833819292      -26.3718348872       -9.3112016320  MEMB      78              0.0000000000
     11249       130  POPC      H7S            17.5971021407      -26.4232295409      -10.2866564590  MEMB      78              0.0000000000
     11250       130  POPC      C28            17.2965868657      -25.7024607530       -8.2803503681  MEMB      78              0.0000000000
     11251       130  POPC      H8R            17.1151261673      -26.7320949512       -7.9014707264  MEMB      78              0.0000000000
     11252       130  POPC      H8S            16.3019604580      -25.2873636121       -8.5567542757  MEMB      78              0.0000000000
     11253       130  POPC      C29            17.9697256681      -24.8840715044       -7.2126735308  MEMB      78              0.0000000000
     11254       130  POPC      H91            19.0599616795      -25.0112161516       -7.1292252940  MEMB      78              0.0000000000
     11255       130  POPC      C210           17.3524478481      -24.0354221402       -6.3786421473  MEMB      78              0.0000000000
     11256       130  POPC      H101           17.9607503274      -23.4815612342       -5.6469539077  MEMB      78              0.0000000000
     11257       130  POPC      C211           15.8761555840      -23.7339937642       -6.3361161428  MEMB      78              0.0000000000
     11258       130  POPC      H11R           15.5453189969      -23.3098248958       -7.3110292556  MEMB      78              0.0000000000
     11259       130  POPC      H11S           15.7074781523      -22.9286131532       -5.5876423579  MEMB      78              0.0000000000
     11260       130  POPC      C212           14.9205027703      -24.9005622896       -5.9721259572  MEMB      78              0.0000000000
     11261       130  POPC      H12R           14.6019777670      -25.4116169496       -6.9086392242  MEMB      78              0.0000000000
     11262       130  POPC      H12S           14.0086956699      -24.4513409833       -5.5167944046  MEMB      78              0.0000000000
     11263       130  POPC      C213           15.4521225320      -25.9709530574       -4.9989927914  MEMB      78              0.0000000000
     11264       130  POPC      H13R           16.1602655489      -26.6388990822       -5.5368132349  MEMB      78              0.0000000000
     11265       130  POPC      H13S           14.5932831234      -26.6083972396       -4.6869624067  MEMB      78              0.0000000000
     11266       130  POPC      C214           16.1481814305      -25.4019489280       -3.7539780484  MEMB      78              0.0000000000
     11267       130  POPC      H14R           16.0290141223      -24.2941302584       -3.7636816702  MEMB      78              0.0000000000
     11268       130  POPC      H14S           17.2382254850      -25.6137948997       -3.7897454464  MEMB      78              0.0000000000
     11269       130  POPC      C215           15.5521339654      -25.8816497161       -2.4310168407  MEMB      78              0.0000000000
     11270       130  POPC      H15R           14.4500537893      -25.9109987044       -2.5324743929  MEMB      78              0.0000000000
     11271       130  POPC      H15S           15.8158878489      -25.1237412272       -1.6560768060  MEMB      78              0.0000000000
     11272       130  POPC      C216           16.0615070643      -27.2311718883       -1.9255791711  MEMB      78              0.0000000000
     11273       130  POPC      H16R           17.1627134217      -27.2506869485       -2.0562859404  MEMB      78              0.0000000000
     11274       130  POPC      H16S           15.6350452705      -28.0642667000       -2.5255415915  MEMB      78              0.0000000000
     11275       130  POPC      C217           15.7449167834      -27.4190820970       -0.4363722221  MEMB      78              0.0000000000
     11276       130  POPC      H17R           14.6807500392      -27.7282107665       -0.3291911756  MEMB      78              0.0000000000
     11277       130  POPC      H17S           15.8747859166      -26.4439871903        0.0873593208  MEMB      78              0.0000000000
     11278       130  POPC      C218           16.6213989261      -28.4422684746        0.2655544580  MEMB      78              0.0000000000
     11279       130  POPC      H18R           16.4596246261      -29.4389017384       -0.1909268382  MEMB      78              0.0000000000
     11280       130  POPC      H18S           16.3576768640      -28.5025563889        1.3431464958  MEMB      78              0.0000000000
     11281       130  POPC      H18T           17.7016692275      -28.1934552052        0.1869399803  MEMB      78              0.0000000000
     11282       130  POPC      C33            20.0521473551      -21.3535606890      -13.5331760006  MEMB      78              0.0000000000
     11283       130  POPC      H3X            20.6687521253      -22.0725726399      -12.9498737160  MEMB      78              0.0000000000
     11284       130  POPC      H3Y            18.9903179929      -21.6847287178      -13.4607479353  MEMB      78              0.0000000000
     11285       130  POPC      C34            20.1614705451      -19.9624739584      -12.9020633931  MEMB      78              0.0000000000
     11286       130  POPC      H4X            19.6992676449      -19.2328575631      -13.6056816120  MEMB      78              0.0000000000
     11287       130  POPC      H4Y            21.2259310923      -19.6701238420      -12.7751723225  MEMB      78              0.0000000000
     11288       130  POPC      C35            19.4112733866      -19.8506755557      -11.5642894041  MEMB      78              0.0000000000
     11289       130  POPC      H5X            18.3753334045      -20.2374248275      -11.6935042639  MEMB      78              0.0000000000
     11290       130  POPC      H5Y            19.3329656008      -18.7698749565      -11.3043122417  MEMB      78              0.0000000000
     11291       130  POPC      C36            20.0919684008      -20.5712348065      -10.3938587413  MEMB      78              0.0000000000
     11292       130  POPC      H6X            21.1737772883      -20.3053311458      -10.4033253153  MEMB      78              0.0000000000
     11293       130  POPC      H6Y            20.0201196705      -21.6737561051      -10.5262120042  MEMB      78              0.0000000000
     11294       130  POPC      C37            19.5182431348      -20.1542238328       -9.0252575253  MEMB      78              0.0000000000
     11295       130  POPC      H7X            19.5292238587      -19.0451055450       -8.9457776094  MEMB      78              0.0000000000
     11296       130  POPC      H7Y            20.1992675582      -20.5609691074       -8.2442214652  MEMB      78              0.0000000000
     11297       130  POPC      C38            18.0916623320      -20.6541431692       -8.7379059325  MEMB      78              0.0000000000
     11298       130  POPC      H8X            18.1305549757      -21.7654154433       -8.7004274135  MEMB      78              0.0000000000
     11299       130  POPC      H8Y            17.4034828650      -20.3580197396       -9.5589497907  MEMB      78              0.0000000000
     11300       130  POPC      C39            17.5121060525      -20.1919876843       -7.3899001432  MEMB      78              0.0000000000
     11301       130  POPC      H9X            16.5656868262      -20.7516656038       -7.2063626803  MEMB      78              0.0000000000
     11302       130  POPC      H9Y            17.2722891267      -19.1070247109       -7.4239742549  MEMB      78              0.0000000000
     11303       130  POPC      C310           18.4824032819      -20.4598420219       -6.2357907140  MEMB      78              0.0000000000
     11304       130  POPC      H10X           19.3398344651      -19.7543684692       -6.3117197345  MEMB      78              0.0000000000
     11305       130  POPC      H10Y           18.8809746469      -21.4922520353       -6.3596687801  MEMB      78              0.0000000000
     11306       130  POPC      C311           17.8595797101      -20.3230470982       -4.8424074001  MEMB      78              0.0000000000
     11307       130  POPC      H11X           17.1300372198      -21.1488137354       -4.6873973819  MEMB      78              0.0000000000
     11308       130  POPC      H11Y           17.3045978694      -19.3595397064       -4.7859956693  MEMB      78              0.0000000000
     11309       130  POPC      C312           18.9215131152      -20.3516343131       -3.7305265709  MEMB      78              0.0000000000
     11310       130  POPC      H12X           18.4126428832      -20.3101428620       -2.7419284757  MEMB      78              0.0000000000
     11311       130  POPC      H12Y           19.5569923186      -19.4410482742       -3.8217035779  MEMB      78              0.0000000000
     11312       130  POPC      C313           19.8302653232      -21.5893204048       -3.7880512100  MEMB      78              0.0000000000
     11313       130  POPC      H13X           20.3381058629      -21.6499244410       -4.7755472592  MEMB      78              0.0000000000
     11314       130  POPC      H13Y           19.1920752983      -22.4969091497       -3.6833528711  MEMB      78              0.0000000000
     11315       130  POPC      C314           20.9171110623      -21.5884764050       -2.7074127234  MEMB      78              0.0000000000
     11316       130  POPC      H14X           20.7873487572      -20.6999104753       -2.0480430711  MEMB      78              0.0000000000
     11317       130  POPC      H14Y           21.9158511686      -21.4996327246       -3.1873735407  MEMB      78              0.0000000000
     11318       130  POPC      C315           20.8702338233      -22.8551789170       -1.8518377196  MEMB      78              0.0000000000
     11319       130  POPC      H15X           20.9864150600      -23.7416076089       -2.5131361544  MEMB      78              0.0000000000
     11320       130  POPC      H15Y           19.8589909155      -22.9100637202       -1.3942729133  MEMB      78              0.0000000000
     11321       130  POPC      C316           21.9238849485      -22.8971788883       -0.7455456181  MEMB      78              0.0000000000
     11322       130  POPC      H16X           21.5425448589      -23.4432207857        0.1436151801  MEMB      78              0.0000000000
     11323       130  POPC      H16Y           22.1949332997      -21.8660593267       -0.4365910968  MEMB      78              0.0000000000
     11324       130  POPC      H16Z           22.8408203349      -23.4063079480       -1.1026380393  MEMB      78              0.0000000000
     11325       131  POPC      N             -29.3739177949       11.4768745494      -20.2558500448  MEMB      79              0.0000000000
     11326       131  POPC      C12           -29.3399466173       11.1246267724      -18.7684579577  MEMB      79              0.0000000000
     11327       131  POPC      H12A          -29.8179835101       11.9160795067      -18.2016318881  MEMB      79              0.0000000000
     11328       131  POPC      H12B          -28.3094660707       11.0902334152      -18.4211171012  MEMB      79              0.0000000000
     11329       131  POPC      C13           -30.7849610373       11.3446435375      -20.7369610851  MEMB      79              0.0000000000
     11330       131  POPC      H13A          -31.4283335693       11.9842856667      -20.1239906585  MEMB      79              0.0000000000
     11331       131  POPC      H13B          -30.9049907529       11.6945990243      -21.7566785987  MEMB      79              0.0000000000
     11332       131  POPC      H13C          -31.1406885596       10.3282936592      -20.6107686413  MEMB      79              0.0000000000
     11333       131  POPC      C14           -28.9353481209       12.9004464931      -20.4641756418  MEMB      79              0.0000000000
     11334       131  POPC      H14A          -27.9285554157       13.0712338475      -20.0892672530  MEMB      79              0.0000000000
     11335       131  POPC      H14B          -28.9671011720       13.1418965406      -21.5267324994  MEMB      79              0.0000000000
     11336       131  POPC      H14C          -29.6079264890       13.5974447175      -19.9691596419  MEMB      79              0.0000000000
     11337       131  POPC      C15           -28.4645165116       10.5692463633      -21.0254505001  MEMB      79              0.0000000000
     11338       131  POPC      H15A          -27.4337624370       10.6368608735      -20.6639163822  MEMB      79              0.0000000000
     11339       131  POPC      H15B          -28.5136752052       10.7834678345      -22.0806453848  MEMB      79              0.0000000000
     11340       131  POPC      H15C          -28.7184427864        9.5254354257      -20.8199732216  MEMB      79              0.0000000000
     11341       131  POPC      C11           -29.9481029059        9.7680712867      -18.3226733541  MEMB      79              0.0000000000
     11342       131  POPC      H11A          -30.9704941579        9.6301839304      -18.7302851454  MEMB      79              0.0000000000
     11343       131  POPC      H11B          -30.0677777794        9.7608351398      -17.2115892519  MEMB      79              0.0000000000
     11344       131  POPC      P             -27.6573513204        8.4762795711      -18.2337385688  MEMB      79              0.0000000000
     11345       131  POPC      O13           -26.7558915047        9.0638490091      -19.2538156068  MEMB      79              0.0000000000
     11346       131  POPC      O14           -27.4541674866        7.0603222821      -17.8694241707  MEMB      79              0.0000000000
     11347       131  POPC      O12           -29.1432401411        8.6757034470      -18.7484601922  MEMB      79              0.0000000000
     11348       131  POPC      O11           -27.6554837618        9.4302813332      -16.9875904667  MEMB      79              0.0000000000
     11349       131  POPC      C1            -26.5370111589        9.5774946008      -16.1309343564  MEMB      79              0.0000000000
     11350       131  POPC      HA            -26.0110493587       10.5186185686      -16.3912555818  MEMB      79              0.0000000000
     11351       131  POPC      HB            -25.8106543697        8.7334775392      -16.1916248362  MEMB      79              0.0000000000
     11352       131  POPC      C2            -27.0711396059        9.7124513312      -14.7015218616  MEMB      79              0.0000000000
     11353       131  POPC      HS            -26.2748822119       10.1111451393      -14.0364238938  MEMB      79              0.0000000000
     11354       131  POPC      O21           -27.5429471133        8.4498184744      -14.2338733534  MEMB      79              0.0000000000
     11355       131  POPC      C21           -26.6295981789        7.6044407879      -13.8279302764  MEMB      79              0.0000000000
     11356       131  POPC      O22           -25.4210265482        7.7799093266      -13.8476614240  MEMB      79              0.0000000000
     11357       131  POPC      C22           -27.3541462355        6.3810574942      -13.2545665612  MEMB      79              0.0000000000
     11358       131  POPC      H2R           -27.5008141437        5.6696516041      -14.0947400319  MEMB      79              0.0000000000
     11359       131  POPC      H2S           -28.3538365173        6.7020156613      -12.8894040740  MEMB      79              0.0000000000
     11360       131  POPC      C3            -28.2570963821       10.7064389856      -14.6803406074  MEMB      79              0.0000000000
     11361       131  POPC      HX            -29.2012189331       10.1830809324      -14.9593045444  MEMB      79              0.0000000000
     11362       131  POPC      HY            -28.0783711923       11.4750911914      -15.4670798033  MEMB      79              0.0000000000
     11363       131  POPC      O31           -28.3566043523       11.3793952282      -13.4195857590  MEMB      79              0.0000000000
     11364       131  POPC      C31           -28.8652450414       10.6765760476      -12.4147022909  MEMB      79              0.0000000000
     11365       131  POPC      O32           -29.1826307391        9.5055741183      -12.4154864336  MEMB      79              0.0000000000
     11366       131  POPC      C32           -29.0686499405       11.5870189721      -11.2206080520  MEMB      79              0.0000000000
     11367       131  POPC      H2X           -28.9740396088       12.6431123206      -11.5380652831  MEMB      79              0.0000000000
     11368       131  POPC      H2Y           -28.2805243498       11.3620623317      -10.4744615900  MEMB      79              0.0000000000
     11369       131  POPC      C23           -26.5976601068        5.6780205458      -12.0989713965  MEMB      79              0.0000000000
     11370       131  POPC      H3R           -25.5830284726        5.3722606536      -12.4373516183  MEMB      79              0.0000000000
     11371       131  POPC      H3S           -27.1649160533        4.7506613036      -11.8525853384  MEMB      79              0.0000000000
     11372       131  POPC      C24           -26.4999974357        6.5112682161      -10.8087938950  MEMB      79              0.0000000000
     11373       131  POPC      H4R           -27.4965347250        6.9539868235      -10.5801035203  MEMB      79              0.0000000000
     11374       131  POPC      H4S           -25.7855765681        7.3499222717      -10.9665312470  MEMB      79              0.0000000000
     11375       131  POPC      C25           -26.0498543281        5.6718313203       -9.5976558090  MEMB      79              0.0000000000
     11376       131  POPC      H5R           -25.1173224331        5.1170747307       -9.8444303869  MEMB      79              0.0000000000
     11377       131  POPC      H5S           -26.8427124216        4.9165719575       -9.3935513904  MEMB      79              0.0000000000
     11378       131  POPC      C26           -25.8218026895        6.5010635339       -8.3197981971  MEMB      79              0.0000000000
     11379       131  POPC      H6R           -26.0769627331        5.8896894794       -7.4262029377  MEMB      79              0.0000000000
     11380       131  POPC      H6S           -26.5063444152        7.3754714881       -8.3151211228  MEMB      79              0.0000000000
     11381       131  POPC      C27           -24.3656354841        6.9676126608       -8.1610321851  MEMB      79              0.0000000000
     11382       131  POPC      H7R           -24.0900023619        7.5319151543       -9.0816198023  MEMB      79              0.0000000000
     11383       131  POPC      H7S           -23.6912613774        6.0855681789       -8.1077086705  MEMB      79              0.0000000000
     11384       131  POPC      C28           -24.1362329100        7.8929477508       -6.9485791567  MEMB      79              0.0000000000
     11385       131  POPC      H8R           -24.8634964288        8.7310838652       -7.0068874486  MEMB      79              0.0000000000
     11386       131  POPC      H8S           -23.1304773193        8.3460633952       -7.0649925842  MEMB      79              0.0000000000
     11387       131  POPC      C29           -24.1601645132        7.2319790686       -5.5980590352  MEMB      79              0.0000000000
     11388       131  POPC      H91           -23.2240303893        6.7215073075       -5.3370138680  MEMB      79              0.0000000000
     11389       131  POPC      C210          -25.1733382004        7.2117789674       -4.7151136583  MEMB      79              0.0000000000
     11390       131  POPC      H101          -25.0322148614        6.6875568072       -3.7593216263  MEMB      79              0.0000000000
     11391       131  POPC      C211          -26.5269065605        7.8447728090       -4.8813494512  MEMB      79              0.0000000000
     11392       131  POPC      H11R          -26.6505596106        8.3007300938       -5.8877542308  MEMB      79              0.0000000000
     11393       131  POPC      H11S          -26.6554102318        8.6587224121       -4.1395011509  MEMB      79              0.0000000000
     11394       131  POPC      C212          -27.6384472036        6.7999660837       -4.6911717792  MEMB      79              0.0000000000
     11395       131  POPC      H12R          -27.6042312338        6.3587222813       -3.6710174479  MEMB      79              0.0000000000
     11396       131  POPC      H12S          -27.4766834522        5.9684044195       -5.4164034432  MEMB      79              0.0000000000
     11397       131  POPC      C213          -29.0352331666        7.3782553197       -4.9467132321  MEMB      79              0.0000000000
     11398       131  POPC      H13R          -29.7213673638        6.5422936610       -5.2036264924  MEMB      79              0.0000000000
     11399       131  POPC      H13S          -28.9959135652        8.0604756425       -5.8245093306  MEMB      79              0.0000000000
     11400       131  POPC      C214          -29.6317461831        8.1205604463       -3.7437098319  MEMB      79              0.0000000000
     11401       131  POPC      H14R          -28.9766946034        8.9676343446       -3.4537865151  MEMB      79              0.0000000000
     11402       131  POPC      H14S          -29.6790345230        7.4300410263       -2.8729810740  MEMB      79              0.0000000000
     11403       131  POPC      C215          -31.0421258278        8.6400923086       -4.0536491110  MEMB      79              0.0000000000
     11404       131  POPC      H15R          -31.6761556361        7.7777851982       -4.3501730366  MEMB      79              0.0000000000
     11405       131  POPC      H15S          -30.9954859843        9.3190741667       -4.9326357650  MEMB      79              0.0000000000
     11406       131  POPC      C216          -31.6837176446        9.3752357260       -2.8693955239  MEMB      79              0.0000000000
     11407       131  POPC      H16R          -31.2285018904       10.3890709453       -2.8017586271  MEMB      79              0.0000000000
     11408       131  POPC      H16S          -31.4336235226        8.8388238315       -1.9254091610  MEMB      79              0.0000000000
     11409       131  POPC      C217          -33.2153493105        9.5031409956       -2.9592758980  MEMB      79              0.0000000000
     11410       131  POPC      H17R          -33.5293443797       10.3135168905       -2.2623918571  MEMB      79              0.0000000000
     11411       131  POPC      H17S          -33.6752177077        8.5625463134       -2.5857850847  MEMB      79              0.0000000000
     11412       131  POPC      C218          -33.7738743503        9.7906907080       -4.3587970043  MEMB      79              0.0000000000
     11413       131  POPC      H18R          -34.8318562336       10.1268210152       -4.2922323802  MEMB      79              0.0000000000
     11414       131  POPC      H18S          -33.7391890311        8.8797129976       -4.9936220903  MEMB      79              0.0000000000
     11415       131  POPC      H18T          -33.1807428387       10.5858992200       -4.8577357372  MEMB      79              0.0000000000
     11416       131  POPC      C33           -30.4741476519       11.3565757886      -10.6382852519  MEMB      79              0.0000000000
     11417       131  POPC      H3X           -30.6266276328       10.2853843892      -10.3691316281  MEMB      79              0.0000000000
     11418       131  POPC      H3Y           -31.2369215168       11.6247473056      -11.4072104394  MEMB      79              0.0000000000
     11419       131  POPC      C34           -30.7139136100       12.2120214453       -9.4040518337  MEMB      79              0.0000000000
     11420       131  POPC      H4X           -31.8070229541       12.3536213547       -9.2885775889  MEMB      79              0.0000000000
     11421       131  POPC      H4Y           -30.2540741740       13.2144888945       -9.5548061494  MEMB      79              0.0000000000
     11422       131  POPC      C35           -30.1713711918       11.5530655325       -8.1383762864  MEMB      79              0.0000000000
     11423       131  POPC      H5X           -29.1446160402       11.1689939398       -8.3335463545  MEMB      79              0.0000000000
     11424       131  POPC      H5Y           -30.8100544653       10.6853457084       -7.8567825649  MEMB      79              0.0000000000
     11425       131  POPC      C36           -30.0989016442       12.5413136311       -6.9856311587  MEMB      79              0.0000000000
     11426       131  POPC      H6X           -31.0838102975       13.0017856127       -6.7692720027  MEMB      79              0.0000000000
     11427       131  POPC      H6Y           -29.4105879550       13.3672493598       -7.2780989490  MEMB      79              0.0000000000
     11428       131  POPC      C37           -29.5891076175       11.8993358537       -5.7026265239  MEMB      79              0.0000000000
     11429       131  POPC      H7X           -28.7511466530       11.2110847065       -5.9520221374  MEMB      79              0.0000000000
     11430       131  POPC      H7Y           -30.3949578324       11.3063902022       -5.2216140889  MEMB      79              0.0000000000
     11431       131  POPC      C38           -29.1103280267       12.9904294659       -4.7556949101  MEMB      79              0.0000000000
     11432       131  POPC      H8X           -29.9505012280       13.6902386152       -4.5459979843  MEMB      79              0.0000000000
     11433       131  POPC      H8Y           -28.3129530826       13.5501068489       -5.2930130529  MEMB      79              0.0000000000
     11434       131  POPC      C39           -28.5225448371       12.4615696613       -3.4557621775  MEMB      79              0.0000000000
     11435       131  POPC      H9X           -29.3146004759       11.9681822398       -2.8517401268  MEMB      79              0.0000000000
     11436       131  POPC      H9Y           -28.1142769280       13.3092044400       -2.8658811174  MEMB      79              0.0000000000
     11437       131  POPC      C310          -27.3500186805       11.5213456155       -3.7044935454  MEMB      79              0.0000000000
     11438       131  POPC      H10X          -26.7082289107       11.9545133520       -4.5062350529  MEMB      79              0.0000000000
     11439       131  POPC      H10Y          -27.7186418058       10.5395165825       -4.0647666922  MEMB      79              0.0000000000
     11440       131  POPC      C311          -26.5015361601       11.3528010627       -2.4487943979  MEMB      79              0.0000000000
     11441       131  POPC      H11X          -26.1481118689       12.3484914763       -2.1071746265  MEMB      79              0.0000000000
     11442       131  POPC      H11Y          -25.6030291766       10.7669640297       -2.7284571648  MEMB      79              0.0000000000
     11443       131  POPC      C312          -27.2218914458       10.6248641520       -1.3083171794  MEMB      79              0.0000000000
     11444       131  POPC      H12X          -28.2985183834       10.4778880244       -1.5457901589  MEMB      79              0.0000000000
     11445       131  POPC      H12Y          -27.1590556009       11.2333870831       -0.3789696649  MEMB      79              0.0000000000
     11446       131  POPC      C313          -26.5710358680        9.2627290347       -1.0867054561  MEMB      79              0.0000000000
     11447       131  POPC      H13X          -25.4695280902        9.4101327565       -1.0045981724  MEMB      79              0.0000000000
     11448       131  POPC      H13Y          -26.7493190719        8.6365653209       -1.9872843748  MEMB      79              0.0000000000
     11449       131  POPC      C314          -27.0490706178        8.5184807352        0.1573695463  MEMB      79              0.0000000000
     11450       131  POPC      H14X          -28.1405439590        8.3116570108        0.0983340133  MEMB      79              0.0000000000
     11451       131  POPC      H14Y          -26.8668673716        9.1538356845        1.0550668789  MEMB      79              0.0000000000
     11452       131  POPC      C315          -26.2678331541        7.2111697588        0.3019293524  MEMB      79              0.0000000000
     11453       131  POPC      H15X          -26.3824308062        6.8306855109        1.3335548753  MEMB      79              0.0000000000
     11454       131  POPC      H15Y          -25.1902636011        7.4341883281        0.1661424838  MEMB      79              0.0000000000
     11455       131  POPC      C316          -26.6642176547        6.1283682898       -0.6966425853  MEMB      79              0.0000000000
     11456       131  POPC      H16X          -26.5015239632        6.4747708622       -1.7378407572  MEMB      79              0.0000000000
     11457       131  POPC      H16Y          -27.7372460614        5.8700526952       -0.5762248118  MEMB      79              0.0000000000
     11458       131  POPC      H16Z          -26.0540435178        5.2139804167       -0.5350112612  MEMB      79              0.0000000000
     11459       132  POPC      N              25.1851396272       17.7769484877      -20.2734537714  MEMB      80              0.0000000000
     11460       132  POPC      C12            24.9426978067       17.6787532538      -18.7892272670  MEMB      80              0.0000000000
     11461       132  POPC      H12A           23.9385951036       17.2981546486      -18.6364390779  MEMB      80              0.0000000000
     11462       132  POPC      H12B           24.9651966188       18.6745505324      -18.3677808381  MEMB      80              0.0000000000
     11463       132  POPC      C13            24.8615077174       16.4616601981      -20.9190635830  MEMB      80              0.0000000000
     11464       132  POPC      H13A           25.4084294554       15.6704929449      -20.4101879241  MEMB      80              0.0000000000
     11465       132  POPC      H13B           23.8171690339       16.1985586739      -20.8697696674  MEMB      80              0.0000000000
     11466       132  POPC      H13C           25.1396632405       16.4559853433      -21.9692623638  MEMB      80              0.0000000000
     11467       132  POPC      C14            24.3252283641       18.8190205903      -20.8866018957  MEMB      80              0.0000000000
     11468       132  POPC      H14A           23.2658216198       18.5877968001      -20.8046659633  MEMB      80              0.0000000000
     11469       132  POPC      H14B           24.5323509222       19.7959391867      -20.4941181925  MEMB      80              0.0000000000
     11470       132  POPC      H14C           24.5221706140       18.8465717273      -21.9588169073  MEMB      80              0.0000000000
     11471       132  POPC      C15            26.6232233805       18.0467586111      -20.5772624885  MEMB      80              0.0000000000
     11472       132  POPC      H15A           26.8152624158       18.1435472149      -21.6337241931  MEMB      80              0.0000000000
     11473       132  POPC      H15B           27.2247046585       17.2045322382      -20.2263126628  MEMB      80              0.0000000000
     11474       132  POPC      H15C           27.0719637837       18.8904320775      -20.0822946209  MEMB      80              0.0000000000
     11475       132  POPC      C11            25.8979504290       16.8125570983      -17.9289737207  MEMB      80              0.0000000000
     11476       132  POPC      H11A           25.3631404071       16.7843730807      -16.9493498131  MEMB      80              0.0000000000
     11477       132  POPC      H11B           26.8578765092       17.3593271578      -17.7588211941  MEMB      80              0.0000000000
     11478       132  POPC      P              27.5319689424       14.8905629431      -18.7794962481  MEMB      80              0.0000000000
     11479       132  POPC      O13            28.3295058720       15.9756658785      -19.3769949409  MEMB      80              0.0000000000
     11480       132  POPC      O14            27.3424034895       13.7132978677      -19.6574281539  MEMB      80              0.0000000000
     11481       132  POPC      O12            26.0936332401       15.4608413003      -18.3810492025  MEMB      80              0.0000000000
     11482       132  POPC      O11            28.2242222781       14.4004212399      -17.4338857583  MEMB      80              0.0000000000
     11483       132  POPC      C1             27.4850516702       13.8162316994      -16.3640376457  MEMB      80              0.0000000000
     11484       132  POPC      HA             28.1401975241       13.0867584682      -15.8372346693  MEMB      80              0.0000000000
     11485       132  POPC      HB             26.5918253554       13.2660421325      -16.7367318809  MEMB      80              0.0000000000
     11486       132  POPC      C2             27.0474182311       14.9071294915      -15.3595280030  MEMB      80              0.0000000000
     11487       132  POPC      HS             26.5408898675       15.6825661547      -15.9453247636  MEMB      80              0.0000000000
     11488       132  POPC      O21            28.2107257795       15.4142995199      -14.6828814049  MEMB      80              0.0000000000
     11489       132  POPC      C21            28.2891740062       16.7414106173      -14.6428566099  MEMB      80              0.0000000000
     11490       132  POPC      O22            27.4137876115       17.5192554920      -14.9842747830  MEMB      80              0.0000000000
     11491       132  POPC      C22            29.5972847631       17.1862130922      -14.0344666300  MEMB      80              0.0000000000
     11492       132  POPC      H2R            29.9532907258       18.0620754443      -14.6142416379  MEMB      80              0.0000000000
     11493       132  POPC      H2S            30.3306480854       16.3611831828      -14.1510090689  MEMB      80              0.0000000000
     11494       132  POPC      C3             26.0031558777       14.4155385237      -14.3249907941  MEMB      80              0.0000000000
     11495       132  POPC      HX             26.3208911391       13.4230232608      -13.9408706254  MEMB      80              0.0000000000
     11496       132  POPC      HY             25.0266347907       14.2794030843      -14.8426309678  MEMB      80              0.0000000000
     11497       132  POPC      O31            25.9114590342       15.3415168460      -13.2261763683  MEMB      80              0.0000000000
     11498       132  POPC      C31            25.2370478304       16.4685424815      -13.4843869014  MEMB      80              0.0000000000
     11499       132  POPC      O32            24.4828802619       16.6327750763      -14.4252206654  MEMB      80              0.0000000000
     11500       132  POPC      C32            25.6139436018       17.5304664368      -12.4502481598  MEMB      80              0.0000000000
     11501       132  POPC      H2X            24.9979357973       18.4286533525      -12.6593856248  MEMB      80              0.0000000000
     11502       132  POPC      H2Y            26.6697704456       17.8184006554      -12.5853230503  MEMB      80              0.0000000000
     11503       132  POPC      C23            29.4160957813       17.5799170039      -12.5568924024  MEMB      80              0.0000000000
     11504       132  POPC      H3R            28.5235690869       17.0837281026      -12.1179108201  MEMB      80              0.0000000000
     11505       132  POPC      H3S            29.2897158682       18.6791331853      -12.4451975214  MEMB      80              0.0000000000
     11506       132  POPC      C24            30.6055180965       17.0727784292      -11.7651105697  MEMB      80              0.0000000000
     11507       132  POPC      H4R            31.5299645666       17.4902332851      -12.2217424957  MEMB      80              0.0000000000
     11508       132  POPC      H4S            30.6209642797       15.9716043205      -11.9158987534  MEMB      80              0.0000000000
     11509       132  POPC      C25            30.5481403143       17.3782913044      -10.2676289822  MEMB      80              0.0000000000
     11510       132  POPC      H5R            29.8772140405       18.2467076568      -10.0905292992  MEMB      80              0.0000000000
     11511       132  POPC      H5S            31.5659182424       17.6557392549       -9.9127052823  MEMB      80              0.0000000000
     11512       132  POPC      C26            30.0919215450       16.1511611265       -9.4777250235  MEMB      80              0.0000000000
     11513       132  POPC      H6R            30.7908324833       15.3137463898       -9.7021227224  MEMB      80              0.0000000000
     11514       132  POPC      H6S            29.1000666664       15.8449982591       -9.8509640982  MEMB      80              0.0000000000
     11515       132  POPC      C27            30.0979963052       16.3355022347       -7.9572625731  MEMB      80              0.0000000000
     11516       132  POPC      H7R            31.1138508464       16.7094076085       -7.7008725355  MEMB      80              0.0000000000
     11517       132  POPC      H7S            29.9720809944       15.3373420034       -7.4800830202  MEMB      80              0.0000000000
     11518       132  POPC      C28            29.0190746830       17.2727928633       -7.3858420989  MEMB      80              0.0000000000
     11519       132  POPC      H8R            28.0284960941       16.7893827065       -7.4882903851  MEMB      80              0.0000000000
     11520       132  POPC      H8S            28.9889160397       18.2200835248       -7.9635214505  MEMB      80              0.0000000000
     11521       132  POPC      C29            29.3627761996       17.5356774455       -5.9435951511  MEMB      80              0.0000000000
     11522       132  POPC      H91            30.4273674809       17.4379203612       -5.7227083919  MEMB      80              0.0000000000
     11523       132  POPC      C210           28.5456138325       17.8613879615       -4.9341342377  MEMB      80              0.0000000000
     11524       132  POPC      H101           28.9806809401       18.0412129872       -3.9390583220  MEMB      80              0.0000000000
     11525       132  POPC      C211           27.0616374081       18.0449848452       -5.0314070591  MEMB      80              0.0000000000
     11526       132  POPC      H11R           26.5567531280       17.6069031082       -4.1446511285  MEMB      80              0.0000000000
     11527       132  POPC      H11S           26.6484149283       17.5420507394       -5.9326003807  MEMB      80              0.0000000000
     11528       132  POPC      C212           26.7421016336       19.5426126956       -5.1252780282  MEMB      80              0.0000000000
     11529       132  POPC      H12R           27.4503347276       20.0254639089       -5.8251099762  MEMB      80              0.0000000000
     11530       132  POPC      H12S           26.8732065573       20.0354722610       -4.1380739458  MEMB      80              0.0000000000
     11531       132  POPC      C213           25.3464313275       19.8206155995       -5.6818843621  MEMB      80              0.0000000000
     11532       132  POPC      H13R           25.3465996731       19.5410767359       -6.7617021785  MEMB      80              0.0000000000
     11533       132  POPC      H13S           25.1404398751       20.9120833446       -5.6247589424  MEMB      80              0.0000000000
     11534       132  POPC      C214           24.2349530196       19.0266160768       -4.9928372534  MEMB      80              0.0000000000
     11535       132  POPC      H14R           24.3440266461       17.9511648098       -5.2570939051  MEMB      80              0.0000000000
     11536       132  POPC      H14S           23.2667739351       19.3688882332       -5.4197024276  MEMB      80              0.0000000000
     11537       132  POPC      C215           24.1773544378       19.1606400081       -3.4618252888  MEMB      80              0.0000000000
     11538       132  POPC      H15R           24.0500503058       20.2245320361       -3.1775290377  MEMB      80              0.0000000000
     11539       132  POPC      H15S           25.1293366192       18.8137670171       -3.0031322768  MEMB      80              0.0000000000
     11540       132  POPC      C216           23.0433268986       18.2891755007       -2.9034956487  MEMB      80              0.0000000000
     11541       132  POPC      H16R           23.4885805267       17.2976764950       -2.7448736960  MEMB      80              0.0000000000
     11542       132  POPC      H16S           22.2559717872       18.1515455440       -3.6703500842  MEMB      80              0.0000000000
     11543       132  POPC      C217           22.3550991898       18.7362817168       -1.6076106246  MEMB      80              0.0000000000
     11544       132  POPC      H17R           21.7724477922       17.8632594425       -1.2369845007  MEMB      80              0.0000000000
     11545       132  POPC      H17S           21.6164918276       19.5329605380       -1.8426175040  MEMB      80              0.0000000000
     11546       132  POPC      C218           23.2772339554       19.2129951063       -0.4886802164  MEMB      80              0.0000000000
     11547       132  POPC      H18R           23.9854146748       19.9816587318       -0.8613669829  MEMB      80              0.0000000000
     11548       132  POPC      H18S           23.8580414831       18.3627937178       -0.0787068015  MEMB      80              0.0000000000
     11549       132  POPC      H18T           22.6851907178       19.6558178417        0.3411850091  MEMB      80              0.0000000000
     11550       132  POPC      C33            25.3577272720       17.0086388755      -11.0303482716  MEMB      80              0.0000000000
     11551       132  POPC      H3X            24.6847386444       16.1309066864      -11.1268796429  MEMB      80              0.0000000000
     11552       132  POPC      H3Y            24.8557804385       17.7817338429      -10.4141377784  MEMB      80              0.0000000000
     11553       132  POPC      C34            26.5639729231       16.4699080443      -10.2673615576  MEMB      80              0.0000000000
     11554       132  POPC      H4X            27.2706157407       17.2772772615       -9.9702747684  MEMB      80              0.0000000000
     11555       132  POPC      H4Y            27.1164834282       15.7672684353      -10.9352999918  MEMB      80              0.0000000000
     11556       132  POPC      C35            26.0765894252       15.6850048509       -9.0395299560  MEMB      80              0.0000000000
     11557       132  POPC      H5X            25.0133214180       15.3907151668       -9.1847436630  MEMB      80              0.0000000000
     11558       132  POPC      H5Y            26.1030588671       16.3390947764       -8.1437856982  MEMB      80              0.0000000000
     11559       132  POPC      C36            26.8705764891       14.3916893637       -8.8602091422  MEMB      80              0.0000000000
     11560       132  POPC      H6X            27.9541132265       14.6137581909       -8.8400045925  MEMB      80              0.0000000000
     11561       132  POPC      H6Y            26.6768779187       13.7378314343       -9.7422355841  MEMB      80              0.0000000000
     11562       132  POPC      C37            26.5725267009       13.5984415244       -7.5922511947  MEMB      80              0.0000000000
     11563       132  POPC      H7X            27.2568302665       12.7249896015       -7.5424619719  MEMB      80              0.0000000000
     11564       132  POPC      H7Y            25.5574556536       13.1726335991       -7.6439357285  MEMB      80              0.0000000000
     11565       132  POPC      C38            26.7126161551       14.3889551440       -6.2971809060  MEMB      80              0.0000000000
     11566       132  POPC      H8X            25.9187930495       15.1707428166       -6.2632426870  MEMB      80              0.0000000000
     11567       132  POPC      H8Y            27.6931462239       14.9082449303       -6.2268561467  MEMB      80              0.0000000000
     11568       132  POPC      C39            26.5516946415       13.4350383516       -5.1181370144  MEMB      80              0.0000000000
     11569       132  POPC      H9X            27.5399005843       13.0894029792       -4.7475034732  MEMB      80              0.0000000000
     11570       132  POPC      H9Y            25.9749942036       12.5424843231       -5.4622524213  MEMB      80              0.0000000000
     11571       132  POPC      C310           25.7323051963       14.0755135419       -4.0202322346  MEMB      80              0.0000000000
     11572       132  POPC      H10X           24.7545014148       14.3044309595       -4.4981991150  MEMB      80              0.0000000000
     11573       132  POPC      H10Y           26.1910597179       15.0443015476       -3.7133736433  MEMB      80              0.0000000000
     11574       132  POPC      C311           25.5387108436       13.1661655299       -2.8001741885  MEMB      80              0.0000000000
     11575       132  POPC      H11X           26.4474197001       13.2627192332       -2.1661956526  MEMB      80              0.0000000000
     11576       132  POPC      H11Y           25.4727316963       12.1057846954       -3.1159032396  MEMB      80              0.0000000000
     11577       132  POPC      C312           24.2858925669       13.4924575246       -1.9709945387  MEMB      80              0.0000000000
     11578       132  POPC      H12X           24.4656155877       13.1635043467       -0.9240341476  MEMB      80              0.0000000000
     11579       132  POPC      H12Y           23.4261557137       12.9045892981       -2.3462725521  MEMB      80              0.0000000000
     11580       132  POPC      C313           23.9717246311       14.9861361604       -1.9784842625  MEMB      80              0.0000000000
     11581       132  POPC      H13X           22.9533900751       15.2223878571       -1.6017837787  MEMB      80              0.0000000000
     11582       132  POPC      H13Y           23.9560454634       15.3697112474       -3.0167098225  MEMB      80              0.0000000000
     11583       132  POPC      C314           25.0297777523       15.7150240115       -1.1500644673  MEMB      80              0.0000000000
     11584       132  POPC      H14X           25.1390375425       16.7636694755       -1.4953103683  MEMB      80              0.0000000000
     11585       132  POPC      H14Y           26.0208569875       15.2385381001       -1.2984347555  MEMB      80              0.0000000000
     11586       132  POPC      C315           24.6540657682       15.6517668175        0.3276586975  MEMB      80              0.0000000000
     11587       132  POPC      H15X           24.6640042886       14.5949245110        0.6650671165  MEMB      80              0.0000000000
     11588       132  POPC      H15Y           23.5984227408       15.9902844613        0.4213916808  MEMB      80              0.0000000000
     11589       132  POPC      C316           25.5490291109       16.4871545550        1.2362112513  MEMB      80              0.0000000000
     11590       132  POPC      H16X           25.8048155450       17.4499347515        0.7433815617  MEMB      80              0.0000000000
     11591       132  POPC      H16Y           26.4923195134       15.9515303891        1.4794746438  MEMB      80              0.0000000000
     11592       132  POPC      H16Z           25.0057982727       16.7024699184        2.1817618598  MEMB      80              0.0000000000
     11593       133  POPC      N              -2.2862573941       27.9787146852      -17.5901253852  MEMB      81              0.0000000000
     11594       133  POPC      C12            -1.8784916040       28.1521786495      -19.0411289575  MEMB      81              0.0000000000
     11595       133  POPC      H12A           -0.7968574026       28.0953483288      -19.1071408817  MEMB      81              0.0000000000
     11596       133  POPC      H12B           -2.1581996458       29.1456175962      -19.3701216326  MEMB      81              0.0000000000
     11597       133  POPC      C13            -2.0124472889       26.5627017430      -17.1475765386  MEMB      81              0.0000000000
     11598       133  POPC      H13A           -2.7952673757       25.8952693774      -17.4946039346  MEMB      81              0.0000000000
     11599       133  POPC      H13B           -1.0840579631       26.1853691531      -17.5665022646  MEMB      81              0.0000000000
     11600       133  POPC      H13C           -1.9350178116       26.4640844688      -16.0723491044  MEMB      81              0.0000000000
     11601       133  POPC      C14            -1.4882524442       28.9314362584      -16.7623745234  MEMB      81              0.0000000000
     11602       133  POPC      H14A           -1.6665104406       29.9545767557      -17.0741298123  MEMB      81              0.0000000000
     11603       133  POPC      H14B           -1.7502685424       28.8269748005      -15.7176732244  MEMB      81              0.0000000000
     11604       133  POPC      H14C           -0.4164203658       28.7403233971      -16.8599962666  MEMB      81              0.0000000000
     11605       133  POPC      C15            -3.7543941021       28.2425440533      -17.4526971748  MEMB      81              0.0000000000
     11606       133  POPC      H15A           -4.2666871134       27.5877300797      -18.1710794702  MEMB      81              0.0000000000
     11607       133  POPC      H15B           -4.0298865600       29.2525741581      -17.7300259834  MEMB      81              0.0000000000
     11608       133  POPC      H15C           -4.1288680955       28.0053579919      -16.4660882693  MEMB      81              0.0000000000
     11609       133  POPC      C11            -2.4645302338       27.1360146057      -20.0383533669  MEMB      81              0.0000000000
     11610       133  POPC      H11A           -2.0965905386       26.1301631260      -19.7320682970  MEMB      81              0.0000000000
     11611       133  POPC      H11B           -2.0753745161       27.3616497487      -21.0585654194  MEMB      81              0.0000000000
     11612       133  POPC      P              -4.6380983005       26.0765299226      -20.8900411456  MEMB      81              0.0000000000
     11613       133  POPC      O13            -4.3907463774       24.7647688938      -20.2594647780  MEMB      81              0.0000000000
     11614       133  POPC      O14            -4.1754123125       26.2067681878      -22.2850494764  MEMB      81              0.0000000000
     11615       133  POPC      O12            -3.8867476628       27.1828124993      -20.0309101798  MEMB      81              0.0000000000
     11616       133  POPC      O11            -6.1671580777       26.5284262594      -20.7945531330  MEMB      81              0.0000000000
     11617       133  POPC      C1             -6.4946593727       27.6129607057      -19.9046517718  MEMB      81              0.0000000000
     11618       133  POPC      HA             -6.1996124791       28.5829312410      -20.3494806159  MEMB      81              0.0000000000
     11619       133  POPC      HB             -5.9593044970       27.5250246327      -18.9287405664  MEMB      81              0.0000000000
     11620       133  POPC      C2             -8.0001010138       27.5723408800      -19.4949802896  MEMB      81              0.0000000000
     11621       133  POPC      HS             -8.6128782127       27.9348535274      -20.3495707977  MEMB      81              0.0000000000
     11622       133  POPC      O21            -8.2754578332       28.3354663220      -18.3053151318  MEMB      81              0.0000000000
     11623       133  POPC      C21            -7.9003827340       29.6083818533      -18.3469716640  MEMB      81              0.0000000000
     11624       133  POPC      O22            -7.5723675966       30.1956175669      -19.3654520040  MEMB      81              0.0000000000
     11625       133  POPC      C22            -7.8247746511       30.1926990922      -16.9272819027  MEMB      81              0.0000000000
     11626       133  POPC      H2R            -8.8607301019       30.2631358501      -16.5453461329  MEMB      81              0.0000000000
     11627       133  POPC      H2S            -7.4040376556       31.2203989519      -17.0192601997  MEMB      81              0.0000000000
     11628       133  POPC      C3             -8.3626511505       26.1141599215      -19.1695972184  MEMB      81              0.0000000000
     11629       133  POPC      HX             -8.4733487686       25.5490749219      -20.1200798621  MEMB      81              0.0000000000
     11630       133  POPC      HY             -9.3291666809       26.0863684331      -18.6077563921  MEMB      81              0.0000000000
     11631       133  POPC      O31            -7.2645125168       25.5823189899      -18.4048080751  MEMB      81              0.0000000000
     11632       133  POPC      C31            -7.5003531687       24.4658742136      -17.7901383204  MEMB      81              0.0000000000
     11633       133  POPC      O32            -8.5681339025       23.8798257946      -17.7624235026  MEMB      81              0.0000000000
     11634       133  POPC      C32            -6.2049672775       23.9522262011      -17.1479788596  MEMB      81              0.0000000000
     11635       133  POPC      H2X            -5.3468756357       24.2705900046      -17.7777278403  MEMB      81              0.0000000000
     11636       133  POPC      H2Y            -6.2564119778       22.8437680749      -17.1609958026  MEMB      81              0.0000000000
     11637       133  POPC      C23            -6.9534203821       29.3542583116      -15.9464577739  MEMB      81              0.0000000000
     11638       133  POPC      H3R            -5.8860491870       29.4297092789      -16.2404508738  MEMB      81              0.0000000000
     11639       133  POPC      H3S            -7.2578069704       28.2857076547      -16.0101986001  MEMB      81              0.0000000000
     11640       133  POPC      C24            -7.0940769718       29.7973987207      -14.4805239835  MEMB      81              0.0000000000
     11641       133  POPC      H4R            -8.1551664394       29.6321877736      -14.1812030315  MEMB      81              0.0000000000
     11642       133  POPC      H4S            -6.8878499522       30.8903627183      -14.4128489503  MEMB      81              0.0000000000
     11643       133  POPC      C25            -6.1775793845       29.0599257310      -13.4819664981  MEMB      81              0.0000000000
     11644       133  POPC      H5R            -6.3434731520       27.9607157386      -13.5418737162  MEMB      81              0.0000000000
     11645       133  POPC      H5S            -6.4767450767       29.3748243201      -12.4556068866  MEMB      81              0.0000000000
     11646       133  POPC      C26            -4.6749991345       29.3541744483      -13.6545303362  MEMB      81              0.0000000000
     11647       133  POPC      H6R            -4.5413967354       30.3940441834      -14.0290412208  MEMB      81              0.0000000000
     11648       133  POPC      H6S            -4.2785261027       28.6516071791      -14.4200245237  MEMB      81              0.0000000000
     11649       133  POPC      C27            -3.8629952592       29.2073098733      -12.3494253056  MEMB      81              0.0000000000
     11650       133  POPC      H7R            -2.7997907767       28.9978572874      -12.6029678697  MEMB      81              0.0000000000
     11651       133  POPC      H7S            -4.2493543617       28.3444956490      -11.7668900686  MEMB      81              0.0000000000
     11652       133  POPC      C28            -3.9043258198       30.4862472420      -11.4895854396  MEMB      81              0.0000000000
     11653       133  POPC      H8R            -4.9697820668       30.7784775437      -11.3518678819  MEMB      81              0.0000000000
     11654       133  POPC      H8S            -3.4459082944       31.3028710211      -12.0901806918  MEMB      81              0.0000000000
     11655       133  POPC      C29            -3.2129216339       30.4216592767      -10.1463976723  MEMB      81              0.0000000000
     11656       133  POPC      H91            -2.1631948581       30.7555890008      -10.1431200910  MEMB      81              0.0000000000
     11657       133  POPC      C210           -3.7658619158       30.0112009064       -8.9880126468  MEMB      81              0.0000000000
     11658       133  POPC      H101           -3.1589826251       30.0334728264       -8.0700099410  MEMB      81              0.0000000000
     11659       133  POPC      C211           -5.1809651621       29.5226496041       -8.8018012267  MEMB      81              0.0000000000
     11660       133  POPC      H11R           -5.1657291095       28.6910636734       -8.0660457074  MEMB      81              0.0000000000
     11661       133  POPC      H11S           -5.5522802122       29.1063997912       -9.7671382321  MEMB      81              0.0000000000
     11662       133  POPC      C212           -6.2638316383       30.5123645468       -8.3335763129  MEMB      81              0.0000000000
     11663       133  POPC      H12R           -7.2651160981       30.0529048578       -8.4992334955  MEMB      81              0.0000000000
     11664       133  POPC      H12S           -6.2052655314       31.4231709570       -8.9727968571  MEMB      81              0.0000000000
     11665       133  POPC      C213           -6.1630516500       30.9237815155       -6.8586353194  MEMB      81              0.0000000000
     11666       133  POPC      H13R           -6.7341344247       31.8756060482       -6.7503658304  MEMB      81              0.0000000000
     11667       133  POPC      H13S           -5.1000171456       31.1249816677       -6.6109069869  MEMB      81              0.0000000000
     11668       133  POPC      C214           -6.7336507298       29.9388776946       -5.8209278793  MEMB      81              0.0000000000
     11669       133  POPC      H14R           -6.0716330700       29.0507255216       -5.7358934075  MEMB      81              0.0000000000
     11670       133  POPC      H14S           -7.7342510957       29.5842372709       -6.1504415284  MEMB      81              0.0000000000
     11671       133  POPC      C215           -6.8654693065       30.6362977015       -4.4545377250  MEMB      81              0.0000000000
     11672       133  POPC      H15R           -7.5781076746       31.4857999238       -4.5651970181  MEMB      81              0.0000000000
     11673       133  POPC      H15S           -5.8752774431       31.0661619881       -4.1786705344  MEMB      81              0.0000000000
     11674       133  POPC      C216           -7.3512441467       29.7536931875       -3.2961760048  MEMB      81              0.0000000000
     11675       133  POPC      H16R           -6.6065404298       28.9473793882       -3.1118883666  MEMB      81              0.0000000000
     11676       133  POPC      H16S           -8.3202899029       29.2743243282       -3.5616379853  MEMB      81              0.0000000000
     11677       133  POPC      C217           -7.5324197200       30.5844841387       -2.0161155276  MEMB      81              0.0000000000
     11678       133  POPC      H17R           -8.3823762125       31.2855451563       -2.1609916130  MEMB      81              0.0000000000
     11679       133  POPC      H17S           -6.6262714861       31.2138993511       -1.8716378464  MEMB      81              0.0000000000
     11680       133  POPC      C218           -7.7782654200       29.7646366536       -0.7490978703  MEMB      81              0.0000000000
     11681       133  POPC      H18R           -8.7505826717       29.2310920239       -0.8074263092  MEMB      81              0.0000000000
     11682       133  POPC      H18S           -7.7968506727       30.4307367676        0.1400685541  MEMB      81              0.0000000000
     11683       133  POPC      H18T           -6.9702711984       29.0167861437       -0.6043521572  MEMB      81              0.0000000000
     11684       133  POPC      C33            -6.0320721798       24.4479915293      -15.6932598978  MEMB      81              0.0000000000
     11685       133  POPC      H3X            -6.9740811057       24.2223938103      -15.1404839619  MEMB      81              0.0000000000
     11686       133  POPC      H3Y            -5.8851158717       25.5513680330      -15.6762560575  MEMB      81              0.0000000000
     11687       133  POPC      C34            -4.8547271056       23.7602410647      -14.9833410376  MEMB      81              0.0000000000
     11688       133  POPC      H4X            -3.9167735211       23.9558306160      -15.5487694706  MEMB      81              0.0000000000
     11689       133  POPC      H4Y            -5.0493835381       22.6637912483      -15.0037064745  MEMB      81              0.0000000000
     11690       133  POPC      C35            -4.6449239129       24.1907625911      -13.5214396326  MEMB      81              0.0000000000
     11691       133  POPC      H5X            -4.3511250134       25.2627576950      -13.4802568103  MEMB      81              0.0000000000
     11692       133  POPC      H5Y            -3.8037790827       23.5990425886      -13.0930867143  MEMB      81              0.0000000000
     11693       133  POPC      C36            -5.8863615394       23.9634464583      -12.6484193992  MEMB      81              0.0000000000
     11694       133  POPC      H6X            -6.2290507070       22.9148015738      -12.7739117397  MEMB      81              0.0000000000
     11695       133  POPC      H6Y            -6.7071206312       24.6193119645      -13.0004542862  MEMB      81              0.0000000000
     11696       133  POPC      C37            -5.6498060985       24.2152904327      -11.1548206827  MEMB      81              0.0000000000
     11697       133  POPC      H7X            -4.6572866667       23.8133783581      -10.8546592776  MEMB      81              0.0000000000
     11698       133  POPC      H7Y            -6.4309199763       23.6724541547      -10.5720418661  MEMB      81              0.0000000000
     11699       133  POPC      C38            -5.7523942951       25.7014943658      -10.8079658036  MEMB      81              0.0000000000
     11700       133  POPC      H8X            -6.8010604821       26.0381338204      -10.9753984799  MEMB      81              0.0000000000
     11701       133  POPC      H8Y            -5.1085003255       26.2886599410      -11.4996530560  MEMB      81              0.0000000000
     11702       133  POPC      C39            -5.3381830793       26.0336338488       -9.3688906839  MEMB      81              0.0000000000
     11703       133  POPC      H9X            -5.5997418986       27.0953590049       -9.2245431587  MEMB      81              0.0000000000
     11704       133  POPC      H9Y            -4.2389170034       25.9265225489       -9.2462703235  MEMB      81              0.0000000000
     11705       133  POPC      C310           -6.0719570001       25.2532100063       -8.2726744193  MEMB      81              0.0000000000
     11706       133  POPC      H10X           -5.7899812374       24.1852723300       -8.3196354155  MEMB      81              0.0000000000
     11707       133  POPC      H10Y           -7.1626477332       25.3213553636       -8.4824552068  MEMB      81              0.0000000000
     11708       133  POPC      C311           -5.8104169888       25.8099577290       -6.8599420235  MEMB      81              0.0000000000
     11709       133  POPC      H11X           -6.6498153144       25.5058254759       -6.1939504065  MEMB      81              0.0000000000
     11710       133  POPC      H11Y           -5.8159368184       26.9199847689       -6.9026450188  MEMB      81              0.0000000000
     11711       133  POPC      C312           -4.5012293132       25.3229462690       -6.2129742294  MEMB      81              0.0000000000
     11712       133  POPC      H12X           -3.6565215948       25.4405422513       -6.9271452454  MEMB      81              0.0000000000
     11713       133  POPC      H12Y           -4.5964894572       24.2378747466       -5.9888345631  MEMB      81              0.0000000000
     11714       133  POPC      C313           -4.1731056537       26.0905966315       -4.9200990712  MEMB      81              0.0000000000
     11715       133  POPC      H13X           -5.0938352732       26.1869297995       -4.3024955148  MEMB      81              0.0000000000
     11716       133  POPC      H13Y           -3.8546753906       27.1203529918       -5.2030915008  MEMB      81              0.0000000000
     11717       133  POPC      C314           -3.0708399224       25.4468672466       -4.0591145842  MEMB      81              0.0000000000
     11718       133  POPC      H14X           -2.7250480724       26.1995392877       -3.3123519554  MEMB      81              0.0000000000
     11719       133  POPC      H14Y           -2.1995490039       25.1814475795       -4.6969203370  MEMB      81              0.0000000000
     11720       133  POPC      C315           -3.5505939321       24.2086701435       -3.2848081287  MEMB      81              0.0000000000
     11721       133  POPC      H15X           -3.8822884357       23.4295249051       -4.0065200525  MEMB      81              0.0000000000
     11722       133  POPC      H15Y           -4.4403251047       24.4995225374       -2.6828629490  MEMB      81              0.0000000000
     11723       133  POPC      C316           -2.4972536345       23.6107733653       -2.3468555343  MEMB      81              0.0000000000
     11724       133  POPC      H16X           -2.1522963615       24.3697346795       -1.6118696426  MEMB      81              0.0000000000
     11725       133  POPC      H16Y           -1.6151131615       23.2591442830       -2.9221425107  MEMB      81              0.0000000000
     11726       133  POPC      H16Z           -2.9160714759       22.7476999417       -1.7844983724  MEMB      81              0.0000000000
     11727       134  POPC      N               5.4248956676       28.5864562222      -21.3720576811  MEMB      82              0.0000000000
     11728       134  POPC      C12             6.2526875864       28.8179634470      -20.1154075387  MEMB      82              0.0000000000
     11729       134  POPC      H12A            7.1909432075       29.2972982943      -20.3864996457  MEMB      82              0.0000000000
     11730       134  POPC      H12B            6.5376609388       27.8596162800      -19.6971914294  MEMB      82              0.0000000000
     11731       134  POPC      C13             4.3406361230       27.5721961038      -21.1409513917  MEMB      82              0.0000000000
     11732       134  POPC      H13A            3.7115362232       27.9247778320      -20.3191528085  MEMB      82              0.0000000000
     11733       134  POPC      H13B            3.7136032411       27.4927202784      -22.0263147638  MEMB      82              0.0000000000
     11734       134  POPC      H13C            4.7089914838       26.5979555659      -20.8697471098  MEMB      82              0.0000000000
     11735       134  POPC      C14             4.7180330640       29.8410397756      -21.7794390999  MEMB      82              0.0000000000
     11736       134  POPC      H14A            5.3914242226       30.6827133862      -21.8398926114  MEMB      82              0.0000000000
     11737       134  POPC      H14B            4.1860797769       29.7182087860      -22.7186588059  MEMB      82              0.0000000000
     11738       134  POPC      H14C            3.9687892249       30.0596424968      -21.0209035331  MEMB      82              0.0000000000
     11739       134  POPC      C15             6.2917988228       28.1450163023      -22.4872164578  MEMB      82              0.0000000000
     11740       134  POPC      H15A            6.9704630157       27.3498335491      -22.1928222421  MEMB      82              0.0000000000
     11741       134  POPC      H15B            6.9241692587       28.9598264319      -22.8393989954  MEMB      82              0.0000000000
     11742       134  POPC      H15C            5.7063054019       27.7901292476      -23.3243235275  MEMB      82              0.0000000000
     11743       134  POPC      C11             5.6323370599       29.6851117519      -18.9897377634  MEMB      82              0.0000000000
     11744       134  POPC      H11A            5.7757497120       30.7530571262      -19.2564532644  MEMB      82              0.0000000000
     11745       134  POPC      H11B            6.2425868647       29.5391552641      -18.0649173980  MEMB      82              0.0000000000
     11746       134  POPC      P               3.6527659074       28.8870979068      -17.4349288116  MEMB      82              0.0000000000
     11747       134  POPC      O13             2.2276650660       29.2893152982      -17.3550236279  MEMB      82              0.0000000000
     11748       134  POPC      O14             4.5552780851       29.2830996647      -16.3293104598  MEMB      82              0.0000000000
     11749       134  POPC      O12             4.2367929165       29.4305543812      -18.8020927236  MEMB      82              0.0000000000
     11750       134  POPC      O11             3.7125710780       27.3225427138      -17.7424223410  MEMB      82              0.0000000000
     11751       134  POPC      C1              4.9601673550       26.6363959628      -17.6920487500  MEMB      82              0.0000000000
     11752       134  POPC      HA              5.8356593532       27.3237418582      -17.6171422192  MEMB      82              0.0000000000
     11753       134  POPC      HB              5.0850297636       26.0420366454      -18.6227731599  MEMB      82              0.0000000000
     11754       134  POPC      C2              5.0364480028       25.6612324848      -16.4899168030  MEMB      82              0.0000000000
     11755       134  POPC      HS              4.2150194682       24.9301309824      -16.6348319398  MEMB      82              0.0000000000
     11756       134  POPC      O21             4.8632314971       26.3855953612      -15.2596373093  MEMB      82              0.0000000000
     11757       134  POPC      C21             4.4900637340       25.6022957952      -14.2558797697  MEMB      82              0.0000000000
     11758       134  POPC      O22             4.1330364726       24.4416409132      -14.3807036820  MEMB      82              0.0000000000
     11759       134  POPC      C22             4.7174149660       26.2857726368      -12.9074567998  MEMB      82              0.0000000000
     11760       134  POPC      H2R             5.8106327377       26.4092065720      -12.7766991641  MEMB      82              0.0000000000
     11761       134  POPC      H2S             4.3950075023       25.5932779063      -12.1096033149  MEMB      82              0.0000000000
     11762       134  POPC      C3              6.4062452014       24.9274038632      -16.4918400088  MEMB      82              0.0000000000
     11763       134  POPC      HX              6.4469978498       24.2981775493      -17.4081850608  MEMB      82              0.0000000000
     11764       134  POPC      HY              6.5290997550       24.2591049149      -15.6116034653  MEMB      82              0.0000000000
     11765       134  POPC      O31             7.4535929393       25.8939945432      -16.5911782835  MEMB      82              0.0000000000
     11766       134  POPC      C31             7.6907614461       26.5866434251      -15.4862351058  MEMB      82              0.0000000000
     11767       134  POPC      O32             7.5357163384       26.2009220276      -14.3439679295  MEMB      82              0.0000000000
     11768       134  POPC      C32             8.1631841178       27.9670184793      -15.9427769341  MEMB      82              0.0000000000
     11769       134  POPC      H2X             7.2808183715       28.5228774629      -16.3240571874  MEMB      82              0.0000000000
     11770       134  POPC      H2Y             8.8722412562       27.8143829874      -16.7827512632  MEMB      82              0.0000000000
     11771       134  POPC      C23             4.0644549854       27.6811538763      -12.7783803277  MEMB      82              0.0000000000
     11772       134  POPC      H3R             4.2070107548       28.2582754399      -13.7220431236  MEMB      82              0.0000000000
     11773       134  POPC      H3S             4.6113845156       28.2460506815      -11.9905837404  MEMB      82              0.0000000000
     11774       134  POPC      C24             2.5745272931       27.6346669086      -12.4056769183  MEMB      82              0.0000000000
     11775       134  POPC      H4R             2.0311906909       27.0945735745      -13.2138576994  MEMB      82              0.0000000000
     11776       134  POPC      H4S             2.1883993064       28.6778995115      -12.3808436528  MEMB      82              0.0000000000
     11777       134  POPC      C25             2.2714067942       26.9485264142      -11.0613636110  MEMB      82              0.0000000000
     11778       134  POPC      H5R             2.5790663145       25.8812766846      -11.1134689548  MEMB      82              0.0000000000
     11779       134  POPC      H5S             1.1703617598       26.9512694774      -10.9000927792  MEMB      82              0.0000000000
     11780       134  POPC      C26             2.9482750487       27.6029089527       -9.8459334260  MEMB      82              0.0000000000
     11781       134  POPC      H6R             2.5117751565       28.6174149981       -9.7002476937  MEMB      82              0.0000000000
     11782       134  POPC      H6S             4.0378040369       27.7290737083      -10.0264878254  MEMB      82              0.0000000000
     11783       134  POPC      C27             2.7688996211       26.7837296752       -8.5574629096  MEMB      82              0.0000000000
     11784       134  POPC      H7R             2.0114672535       25.9923111817       -8.7229971931  MEMB      82              0.0000000000
     11785       134  POPC      H7S             2.3632059078       27.4598923613       -7.7712986390  MEMB      82              0.0000000000
     11786       134  POPC      C28             4.0761232852       26.1620472637       -8.0253778169  MEMB      82              0.0000000000
     11787       134  POPC      H8R             3.8944837901       25.8528758085       -6.9705584505  MEMB      82              0.0000000000
     11788       134  POPC      H8S             4.8376955815       26.9733768567       -8.0023707546  MEMB      82              0.0000000000
     11789       134  POPC      C29             4.5508537582       24.9552155048       -8.8003476734  MEMB      82              0.0000000000
     11790       134  POPC      H91             3.7461426035       24.2571290012       -9.0785030561  MEMB      82              0.0000000000
     11791       134  POPC      C210            5.8124479537       24.6548964325       -9.1673703416  MEMB      82              0.0000000000
     11792       134  POPC      H101            5.9859987846       23.7225691745       -9.7283324693  MEMB      82              0.0000000000
     11793       134  POPC      C211            7.0634102177       25.4537291595       -8.8918282383  MEMB      82              0.0000000000
     11794       134  POPC      H11R            7.0135945176       26.4126311835       -9.4553002863  MEMB      82              0.0000000000
     11795       134  POPC      H11S            7.9501578745       24.9130125459       -9.2966032870  MEMB      82              0.0000000000
     11796       134  POPC      C212            7.3468557976       25.7819233285       -7.4086278319  MEMB      82              0.0000000000
     11797       134  POPC      H12R            6.4696000323       26.2639891634       -6.9307006164  MEMB      82              0.0000000000
     11798       134  POPC      H12S            8.1794286117       26.5208750352       -7.3750042996  MEMB      82              0.0000000000
     11799       134  POPC      C213            7.7501539689       24.5722884081       -6.5565677533  MEMB      82              0.0000000000
     11800       134  POPC      H13R            8.7169167675       24.1864821210       -6.9511323299  MEMB      82              0.0000000000
     11801       134  POPC      H13S            6.9928135558       23.7634676396       -6.6632248361  MEMB      82              0.0000000000
     11802       134  POPC      C214            7.9063499826       24.9329242615       -5.0708834850  MEMB      82              0.0000000000
     11803       134  POPC      H14R            8.0271285716       26.0354024915       -4.9690298952  MEMB      82              0.0000000000
     11804       134  POPC      H14S            8.8296168278       24.4524593043       -4.6740362429  MEMB      82              0.0000000000
     11805       134  POPC      C215            6.7202756624       24.4659506163       -4.2122295011  MEMB      82              0.0000000000
     11806       134  POPC      H15R            6.6597901900       23.3548939141       -4.2698411391  MEMB      82              0.0000000000
     11807       134  POPC      H15S            5.7771120672       24.8715059932       -4.6403637227  MEMB      82              0.0000000000
     11808       134  POPC      C216            6.8555381765       24.8860481050       -2.7387624008  MEMB      82              0.0000000000
     11809       134  POPC      H16R            7.8505317041       25.3686495940       -2.5992147174  MEMB      82              0.0000000000
     11810       134  POPC      H16S            6.8368892897       23.9840651087       -2.0880964253  MEMB      82              0.0000000000
     11811       134  POPC      C217            5.7757961382       25.8732582437       -2.2663975042  MEMB      82              0.0000000000
     11812       134  POPC      H17R            5.7871176466       26.7547029108       -2.9465558550  MEMB      82              0.0000000000
     11813       134  POPC      H17S            6.0618551394       26.2343891214       -1.2531417885  MEMB      82              0.0000000000
     11814       134  POPC      C218            4.3501605543       25.3129102806       -2.1876955893  MEMB      82              0.0000000000
     11815       134  POPC      H18R            4.2904200942       24.4964134222       -1.4363355487  MEMB      82              0.0000000000
     11816       134  POPC      H18S            4.0254022286       24.9182440524       -3.1732685507  MEMB      82              0.0000000000
     11817       134  POPC      H18T            3.6408927278       26.1141861945       -1.8827611518  MEMB      82              0.0000000000
     11818       134  POPC      C33             8.8520035106       28.7593231715      -14.8258018023  MEMB      82              0.0000000000
     11819       134  POPC      H3X             9.3698372124       29.6373648707      -15.2768577610  MEMB      82              0.0000000000
     11820       134  POPC      H3Y             9.6254664238       28.1263090532      -14.3381513895  MEMB      82              0.0000000000
     11821       134  POPC      C34             7.8328358611       29.2631583292      -13.8013901149  MEMB      82              0.0000000000
     11822       134  POPC      H4X             6.8313623558       28.8282658928      -14.0337762868  MEMB      82              0.0000000000
     11823       134  POPC      H4Y             7.7165409230       30.3558968412      -13.9235908095  MEMB      82              0.0000000000
     11824       134  POPC      C35             8.1608902863       28.8884295752      -12.3466501610  MEMB      82              0.0000000000
     11825       134  POPC      H5X             8.1079312971       27.7795262684      -12.2430141559  MEMB      82              0.0000000000
     11826       134  POPC      H5Y             7.3474098065       29.3191137273      -11.7204967637  MEMB      82              0.0000000000
     11827       134  POPC      C36             9.5268346858       29.3608087493      -11.8227483467  MEMB      82              0.0000000000
     11828       134  POPC      H6X             9.5980642128       30.4676896934      -11.9055071511  MEMB      82              0.0000000000
     11829       134  POPC      H6Y            10.3531858667       28.9284596958      -12.4267846009  MEMB      82              0.0000000000
     11830       134  POPC      C37             9.7376358713       28.9693547803      -10.3538679149  MEMB      82              0.0000000000
     11831       134  POPC      H7X            10.6997432398       29.4038230434      -10.0027829401  MEMB      82              0.0000000000
     11832       134  POPC      H7Y             9.8110716203       27.8601684692      -10.2708360751  MEMB      82              0.0000000000
     11833       134  POPC      C38             8.6008636195       29.4737357896       -9.4567666804  MEMB      82              0.0000000000
     11834       134  POPC      H8X             7.7428693726       28.7647139100       -9.5273331904  MEMB      82              0.0000000000
     11835       134  POPC      H8Y             8.2520527670       30.4626010387       -9.8307929164  MEMB      82              0.0000000000
     11836       134  POPC      C39             9.0420833059       29.6398273867       -8.0048804511  MEMB      82              0.0000000000
     11837       134  POPC      H9X             9.9619009007       30.2653012969       -7.9729465412  MEMB      82              0.0000000000
     11838       134  POPC      H9Y             9.2957955870       28.6387223801       -7.5866889222  MEMB      82              0.0000000000
     11839       134  POPC      C310            7.9778339970       30.3032222826       -7.1206808124  MEMB      82              0.0000000000
     11840       134  POPC      H10X            7.8408373539       31.3674252619       -7.4142047038  MEMB      82              0.0000000000
     11841       134  POPC      H10Y            8.4127326271       30.2918934918       -6.1004450932  MEMB      82              0.0000000000
     11842       134  POPC      C311            6.6252926840       29.5672433488       -7.1819128794  MEMB      82              0.0000000000
     11843       134  POPC      H11X            6.8342459485       28.4816464769       -7.2964491375  MEMB      82              0.0000000000
     11844       134  POPC      H11Y            6.0753690449       29.8980268984       -8.0928380629  MEMB      82              0.0000000000
     11845       134  POPC      C312            5.7022209396       29.7105095623       -5.9591231573  MEMB      82              0.0000000000
     11846       134  POPC      H12X            4.8765268295       28.9677379138       -6.0463465021  MEMB      82              0.0000000000
     11847       134  POPC      H12Y            5.2307016610       30.7125571068       -5.9808162381  MEMB      82              0.0000000000
     11848       134  POPC      C313            6.4059730068       29.4940024068       -4.6136655612  MEMB      82              0.0000000000
     11849       134  POPC      H13X            7.2372871031       30.2253973333       -4.5190272888  MEMB      82              0.0000000000
     11850       134  POPC      H13Y            6.8449401371       28.4746072088       -4.5600620540  MEMB      82              0.0000000000
     11851       134  POPC      C314            5.4980609312       29.7465597079       -3.4094525813  MEMB      82              0.0000000000
     11852       134  POPC      H14X            4.8860141131       28.8524131031       -3.1685431101  MEMB      82              0.0000000000
     11853       134  POPC      H14Y            4.7905350802       30.5578573100       -3.6846417141  MEMB      82              0.0000000000
     11854       134  POPC      C315            6.3156633539       30.2018174611       -2.1949503784  MEMB      82              0.0000000000
     11855       134  POPC      H15X            5.6485100538       30.7422478740       -1.5077535079  MEMB      82              0.0000000000
     11856       134  POPC      H15Y            7.0867560228       30.9400189255       -2.5044003855  MEMB      82              0.0000000000
     11857       134  POPC      C316            6.9674752904       29.0593090246       -1.4270597317  MEMB      82              0.0000000000
     11858       134  POPC      H16X            7.6513368159       29.4513430754       -0.6454033215  MEMB      82              0.0000000000
     11859       134  POPC      H16Y            7.5429647490       28.4143696247       -2.1243634573  MEMB      82              0.0000000000
     11860       134  POPC      H16Z            6.1961193184       28.4351052345       -0.9275516922  MEMB      82              0.0000000000
     11861       135  POPC      N             -23.5011217583       16.7093317590      -20.5430787196  MEMB      83              0.0000000000
     11862       135  POPC      C12           -24.5699345149       17.7985007365      -20.6829010674  MEMB      83              0.0000000000
     11863       135  POPC      H12A          -25.2862851862       17.4983264185      -21.4445249030  MEMB      83              0.0000000000
     11864       135  POPC      H12B          -24.1123967467       18.7010861934      -21.0887375482  MEMB      83              0.0000000000
     11865       135  POPC      C13           -24.1496787926       15.4413927926      -20.0624673523  MEMB      83              0.0000000000
     11866       135  POPC      H13A          -23.4355955697       14.6356573150      -19.8882899854  MEMB      83              0.0000000000
     11867       135  POPC      H13B          -24.6999424357       15.6373813163      -19.1413934771  MEMB      83              0.0000000000
     11868       135  POPC      H13C          -24.8744632557       15.0915273325      -20.7888444585  MEMB      83              0.0000000000
     11869       135  POPC      C14           -22.8414289151       16.4494829788      -21.8699336009  MEMB      83              0.0000000000
     11870       135  POPC      H14A          -23.5716751320       16.1948167978      -22.6400177138  MEMB      83              0.0000000000
     11871       135  POPC      H14B          -22.3289834982       17.3287787929      -22.2419815091  MEMB      83              0.0000000000
     11872       135  POPC      H14C          -22.1523958637       15.6197815746      -21.8052833052  MEMB      83              0.0000000000
     11873       135  POPC      C15           -22.4770890804       17.1416020322      -19.5633645367  MEMB      83              0.0000000000
     11874       135  POPC      H15A          -22.1135114533       18.1305480860      -19.8146496539  MEMB      83              0.0000000000
     11875       135  POPC      H15B          -21.6472873802       16.4495860716      -19.5578439398  MEMB      83              0.0000000000
     11876       135  POPC      H15C          -22.9064798718       17.1541774359      -18.5625807889  MEMB      83              0.0000000000
     11877       135  POPC      C11           -25.3868610707       18.2044641268      -19.4316778019  MEMB      83              0.0000000000
     11878       135  POPC      H11A          -25.9536638151       19.1329365728      -19.6974229567  MEMB      83              0.0000000000
     11879       135  POPC      H11B          -24.7129139081       18.4649207188      -18.5850980862  MEMB      83              0.0000000000
     11880       135  POPC      P             -27.5895402377       17.5139396129      -18.2329602108  MEMB      83              0.0000000000
     11881       135  POPC      O13           -27.9443255609       16.3156086537      -17.4471618456  MEMB      83              0.0000000000
     11882       135  POPC      O14           -28.5955239602       18.0084186620      -19.2237633998  MEMB      83              0.0000000000
     11883       135  POPC      O12           -26.2677006007       17.1521656959      -19.0535508633  MEMB      83              0.0000000000
     11884       135  POPC      O11           -27.0923749475       18.6673853950      -17.2581066542  MEMB      83              0.0000000000
     11885       135  POPC      C1            -27.7517442106       18.9166483455      -16.0258853930  MEMB      83              0.0000000000
     11886       135  POPC      HA            -28.5639931026       18.1854683793      -15.8073448523  MEMB      83              0.0000000000
     11887       135  POPC      HB            -28.2112462493       19.9280538987      -16.0783641201  MEMB      83              0.0000000000
     11888       135  POPC      C2            -26.7535496702       18.8643009179      -14.8474278230  MEMB      83              0.0000000000
     11889       135  POPC      HS            -25.7396460926       19.1044630479      -15.2535818600  MEMB      83              0.0000000000
     11890       135  POPC      O21           -26.8534835413       17.5525759444      -14.2391985135  MEMB      83              0.0000000000
     11891       135  POPC      C21           -25.6776734460       16.9909709829      -13.9765170519  MEMB      83              0.0000000000
     11892       135  POPC      O22           -24.6015200953       17.5562878628      -14.0099036558  MEMB      83              0.0000000000
     11893       135  POPC      C22           -25.7750377768       15.4651634068      -13.8030765257  MEMB      83              0.0000000000
     11894       135  POPC      H2R           -24.8907466168       15.1325472161      -13.2252457088  MEMB      83              0.0000000000
     11895       135  POPC      H2S           -25.6620133897       15.0543336920      -14.8306419026  MEMB      83              0.0000000000
     11896       135  POPC      C3            -27.1080113852       19.9661345277      -13.8252920726  MEMB      83              0.0000000000
     11897       135  POPC      HX            -28.2050579057       19.8538358188      -13.6376012038  MEMB      83              0.0000000000
     11898       135  POPC      HY            -26.9688123603       20.9564124639      -14.3149473132  MEMB      83              0.0000000000
     11899       135  POPC      O31           -26.2631958366       19.8731938220      -12.6506587345  MEMB      83              0.0000000000
     11900       135  POPC      C31           -26.9265159451       19.7456410483      -11.5143750526  MEMB      83              0.0000000000
     11901       135  POPC      O32           -28.1383757927       19.7777281937      -11.3950754733  MEMB      83              0.0000000000
     11902       135  POPC      C32           -25.9527257686       19.6293926684      -10.3480493669  MEMB      83              0.0000000000
     11903       135  POPC      H2X           -24.9353821554       19.4177981150      -10.7317241185  MEMB      83              0.0000000000
     11904       135  POPC      H2Y           -26.2891449580       18.7621293898       -9.7433051121  MEMB      83              0.0000000000
     11905       135  POPC      C23           -27.0884100678       14.9069536280      -13.2034732782  MEMB      83              0.0000000000
     11906       135  POPC      H3R           -27.1510623732       13.8294592989      -13.4863641048  MEMB      83              0.0000000000
     11907       135  POPC      H3S           -27.9519902665       15.4151537258      -13.6889622370  MEMB      83              0.0000000000
     11908       135  POPC      C24           -27.2043303174       15.0025088126      -11.6683164634  MEMB      83              0.0000000000
     11909       135  POPC      H4R           -28.2007338810       14.5960439480      -11.3844565070  MEMB      83              0.0000000000
     11910       135  POPC      H4S           -27.1687682931       16.0677385064      -11.3597159382  MEMB      83              0.0000000000
     11911       135  POPC      C25           -26.1801477870       14.2038644977      -10.8561532697  MEMB      83              0.0000000000
     11912       135  POPC      H5R           -25.1465514821       14.4527789439      -11.1782153223  MEMB      83              0.0000000000
     11913       135  POPC      H5S           -26.3698591228       13.1322623938      -11.0665523538  MEMB      83              0.0000000000
     11914       135  POPC      C26           -26.3088547413       14.3888542664       -9.3344460974  MEMB      83              0.0000000000
     11915       135  POPC      H6R           -25.6835477178       13.6135534354       -8.8372694621  MEMB      83              0.0000000000
     11916       135  POPC      H6S           -27.3633681132       14.2158095546       -9.0188526128  MEMB      83              0.0000000000
     11917       135  POPC      C27           -25.8651077495       15.7667149934       -8.8276388667  MEMB      83              0.0000000000
     11918       135  POPC      H7R           -26.5945396739       16.5157021948       -9.2107137601  MEMB      83              0.0000000000
     11919       135  POPC      H7S           -24.8721476057       16.0224496403       -9.2639339175  MEMB      83              0.0000000000
     11920       135  POPC      C28           -25.7743351862       15.8086254600       -7.2864053805  MEMB      83              0.0000000000
     11921       135  POPC      H8R           -24.7015694736       15.7159240058       -7.0019343307  MEMB      83              0.0000000000
     11922       135  POPC      H8S           -26.2902046870       14.9112376820       -6.8781862088  MEMB      83              0.0000000000
     11923       135  POPC      C29           -26.3515558639       17.0703424423       -6.7014586469  MEMB      83              0.0000000000
     11924       135  POPC      H91           -26.0443895200       17.9837247678       -7.2283992252  MEMB      83              0.0000000000
     11925       135  POPC      C210          -27.2074263026       17.1923120282       -5.6710487090  MEMB      83              0.0000000000
     11926       135  POPC      H101          -27.5482920671       18.2069437672       -5.4077974052  MEMB      83              0.0000000000
     11927       135  POPC      C211          -27.8145045319       16.0922585260       -4.8267238040  MEMB      83              0.0000000000
     11928       135  POPC      H11R          -27.0806410644       15.2769584395       -4.6299202845  MEMB      83              0.0000000000
     11929       135  POPC      H11S          -28.6799412963       15.6443713698       -5.3595689925  MEMB      83              0.0000000000
     11930       135  POPC      C212          -28.3100107920       16.6392884986       -3.4710503553  MEMB      83              0.0000000000
     11931       135  POPC      H12R          -28.6285691764       17.7032366081       -3.5679985331  MEMB      83              0.0000000000
     11932       135  POPC      H12S          -27.4361055292       16.5982379836       -2.7863603900  MEMB      83              0.0000000000
     11933       135  POPC      C213          -29.4943986261       15.9411927531       -2.7880561493  MEMB      83              0.0000000000
     11934       135  POPC      H13R          -29.2987646408       14.8673511211       -2.6439704899  MEMB      83              0.0000000000
     11935       135  POPC      H13S          -30.3967583573       16.0056189243       -3.4281196638  MEMB      83              0.0000000000
     11936       135  POPC      C214          -29.7835978111       16.5550037493       -1.4059154254  MEMB      83              0.0000000000
     11937       135  POPC      H14R          -30.6266308169       16.0099360895       -0.9283190600  MEMB      83              0.0000000000
     11938       135  POPC      H14S          -30.1069559266       17.6118670435       -1.5506135873  MEMB      83              0.0000000000
     11939       135  POPC      C215          -28.5688396113       16.5604953724       -0.4505588085  MEMB      83              0.0000000000
     11940       135  POPC      H15R          -28.9005303033       16.9602111702        0.5267945117  MEMB      83              0.0000000000
     11941       135  POPC      H15S          -27.8308521670       17.2892870485       -0.8312644982  MEMB      83              0.0000000000
     11942       135  POPC      C216          -27.8390214460       15.2060827084       -0.3021075390  MEMB      83              0.0000000000
     11943       135  POPC      H16R          -27.6401478733       14.8062684762       -1.3185892499  MEMB      83              0.0000000000
     11944       135  POPC      H16S          -28.4848643883       14.4679518296        0.2144607820  MEMB      83              0.0000000000
     11945       135  POPC      C217          -26.4623286801       15.2732242141        0.3884261108  MEMB      83              0.0000000000
     11946       135  POPC      H17R          -26.5531889608       14.9709175478        1.4517657735  MEMB      83              0.0000000000
     11947       135  POPC      H17S          -26.1026254547       16.3262559541        0.3902450299  MEMB      83              0.0000000000
     11948       135  POPC      C218          -25.4175791507       14.3726375979       -0.2788450895  MEMB      83              0.0000000000
     11949       135  POPC      H18R          -25.6931038325       13.3051067635       -0.1479939139  MEMB      83              0.0000000000
     11950       135  POPC      H18S          -24.4096242820       14.5376555135        0.1541298696  MEMB      83              0.0000000000
     11951       135  POPC      H18T          -25.3581928410       14.5836622311       -1.3673035389  MEMB      83              0.0000000000
     11952       135  POPC      C33           -25.9641338990       20.9138979836       -9.4882816610  MEMB      83              0.0000000000
     11953       135  POPC      H3X           -26.9830815435       21.3683454700       -9.5036129227  MEMB      83              0.0000000000
     11954       135  POPC      H3Y           -25.2634024272       21.6603441064       -9.9276863488  MEMB      83              0.0000000000
     11955       135  POPC      C34           -25.6281268634       20.6737969526       -8.0084046564  MEMB      83              0.0000000000
     11956       135  POPC      H4X           -26.4479918529       20.0741159400       -7.5555936275  MEMB      83              0.0000000000
     11957       135  POPC      H4Y           -25.6188018990       21.6611406439       -7.4895540235  MEMB      83              0.0000000000
     11958       135  POPC      C35           -24.2796465489       19.9749768755       -7.7806679253  MEMB      83              0.0000000000
     11959       135  POPC      H5X           -23.4879035877       20.6060364105       -8.2473911353  MEMB      83              0.0000000000
     11960       135  POPC      H5Y           -24.2582946246       18.9838965849       -8.2835735562  MEMB      83              0.0000000000
     11961       135  POPC      C36           -23.9431750264       19.8046380487       -6.2896801328  MEMB      83              0.0000000000
     11962       135  POPC      H6X           -24.6939706868       19.1765380993       -5.7738346951  MEMB      83              0.0000000000
     11963       135  POPC      H6Y           -24.0160059985       20.8182295910       -5.8353695361  MEMB      83              0.0000000000
     11964       135  POPC      C37           -22.5120935220       19.2848382434       -6.0566587477  MEMB      83              0.0000000000
     11965       135  POPC      H7X           -22.0817920602       19.7064463657       -5.1263047292  MEMB      83              0.0000000000
     11966       135  POPC      H7Y           -21.9094428450       19.6834766588       -6.8945037830  MEMB      83              0.0000000000
     11967       135  POPC      C38           -22.3151446270       17.7612547806       -5.9865405078  MEMB      83              0.0000000000
     11968       135  POPC      H8X           -21.2260750161       17.5684656320       -5.8482256898  MEMB      83              0.0000000000
     11969       135  POPC      H8Y           -22.6184229667       17.3200385173       -6.9607799273  MEMB      83              0.0000000000
     11970       135  POPC      C39           -23.0735354090       17.0578556487       -4.8504391208  MEMB      83              0.0000000000
     11971       135  POPC      H9X           -23.1406997912       15.9668828306       -5.0424144138  MEMB      83              0.0000000000
     11972       135  POPC      H9Y           -24.1200782623       17.4153275960       -4.8529179168  MEMB      83              0.0000000000
     11973       135  POPC      C310          -22.4337527995       17.2285585225       -3.4625053034  MEMB      83              0.0000000000
     11974       135  POPC      H10X          -22.2992649460       18.3095342117       -3.2418254831  MEMB      83              0.0000000000
     11975       135  POPC      H10Y          -21.4228640897       16.7651681366       -3.4525474965  MEMB      83              0.0000000000
     11976       135  POPC      C311          -23.2955249431       16.6002242806       -2.3590307456  MEMB      83              0.0000000000
     11977       135  POPC      H11X          -22.8202187434       16.7721069674       -1.3689538835  MEMB      83              0.0000000000
     11978       135  POPC      H11Y          -23.3505097969       15.4976725812       -2.5148598456  MEMB      83              0.0000000000
     11979       135  POPC      C312          -24.7255116677       17.1564957603       -2.3394240362  MEMB      83              0.0000000000
     11980       135  POPC      H12X          -25.2391523542       16.8126064296       -1.4238364154  MEMB      83              0.0000000000
     11981       135  POPC      H12Y          -25.2857415411       16.7277824646       -3.2005879119  MEMB      83              0.0000000000
     11982       135  POPC      C313          -24.8273811852       18.6896229596       -2.3821743252  MEMB      83              0.0000000000
     11983       135  POPC      H13X          -24.4081908826       19.0684744702       -3.3384769428  MEMB      83              0.0000000000
     11984       135  POPC      H13Y          -24.2469563101       19.1239536570       -1.5466288053  MEMB      83              0.0000000000
     11985       135  POPC      C314          -26.2866037508       19.1278584858       -2.2800014474  MEMB      83              0.0000000000
     11986       135  POPC      H14X          -26.6932709000       18.8511050574       -1.2873084463  MEMB      83              0.0000000000
     11987       135  POPC      H14Y          -26.8071810245       18.5578208782       -3.0712179518  MEMB      83              0.0000000000
     11988       135  POPC      C315          -26.6022275177       20.5928257348       -2.5629594436  MEMB      83              0.0000000000
     11989       135  POPC      H15X          -27.5675604646       20.5864503118       -3.1164920321  MEMB      83              0.0000000000
     11990       135  POPC      H15Y          -25.8437443280       21.0190589319       -3.2520785153  MEMB      83              0.0000000000
     11991       135  POPC      C316          -26.7729462508       21.4302872812       -1.2938046849  MEMB      83              0.0000000000
     11992       135  POPC      H16X          -25.8300309356       21.4568099403       -0.7088744740  MEMB      83              0.0000000000
     11993       135  POPC      H16Y          -27.5590103691       20.9897360329       -0.6431108345  MEMB      83              0.0000000000
     11994       135  POPC      H16Z          -27.0660798633       22.4722821646       -1.5442758427  MEMB      83              0.0000000000
     11995       136  POPC      N             -24.0537452857      -17.6208841453      -19.5699035480  MEMB      84              0.0000000000
     11996       136  POPC      C12           -22.8093306104      -18.4336969963      -19.9445779841  MEMB      84              0.0000000000
     11997       136  POPC      H12A          -21.9486011175      -17.7833361331      -20.0377004800  MEMB      84              0.0000000000
     11998       136  POPC      H12B          -22.9574238051      -18.8874764321      -20.9265258389  MEMB      84              0.0000000000
     11999       136  POPC      C13           -25.2597175449      -18.5051235021      -19.7045556403  MEMB      84              0.0000000000
     12000       136  POPC      H13A          -25.4219103296      -18.7843215708      -20.7378914376  MEMB      84              0.0000000000
     12001       136  POPC      H13B          -25.0694737020      -19.4535331925      -19.1878395510  MEMB      84              0.0000000000
     12002       136  POPC      H13C          -26.1687894081      -18.0609418011      -19.3193604693  MEMB      84              0.0000000000
     12003       136  POPC      C14           -23.9936839429      -17.1595333136      -18.1429017198  MEMB      84              0.0000000000
     12004       136  POPC      H14A          -24.9783115287      -16.8780650496      -17.7735200768  MEMB      84              0.0000000000
     12005       136  POPC      H14B          -23.6805608593      -17.9732214463      -17.4793660222  MEMB      84              0.0000000000
     12006       136  POPC      H14C          -23.3218519304      -16.3220986953      -18.0086730036  MEMB      84              0.0000000000
     12007       136  POPC      C15           -24.1705073725      -16.4271722317      -20.4672424837  MEMB      84              0.0000000000
     12008       136  POPC      H15A          -24.4869199063      -16.7153710297      -21.4726083264  MEMB      84              0.0000000000
     12009       136  POPC      H15B          -23.2292821348      -15.8992600791      -20.5506730553  MEMB      84              0.0000000000
     12010       136  POPC      H15C          -24.9000020315      -15.7480969730      -20.0503762211  MEMB      84              0.0000000000
     12011       136  POPC      C11           -22.4475641534      -19.6345979194      -19.0452438083  MEMB      84              0.0000000000
     12012       136  POPC      H11A          -22.5099358686      -19.3840115112      -17.9632364300  MEMB      84              0.0000000000
     12013       136  POPC      H11B          -21.3813682118      -19.9064635613      -19.2516621300  MEMB      84              0.0000000000
     12014       136  POPC      P             -22.9313136740      -22.1737526690      -18.8817303991  MEMB      84              0.0000000000
     12015       136  POPC      O13           -21.5081454264      -22.3763423955      -19.2581414545  MEMB      84              0.0000000000
     12016       136  POPC      O14           -23.8946835815      -23.1509683769      -19.4392956471  MEMB      84              0.0000000000
     12017       136  POPC      O12           -23.3335061149      -20.7084923251      -19.3681562196  MEMB      84              0.0000000000
     12018       136  POPC      O11           -23.1460753392      -21.9704667071      -17.3204743227  MEMB      84              0.0000000000
     12019       136  POPC      C1            -24.4241473556      -21.4369306726      -16.9182597560  MEMB      84              0.0000000000
     12020       136  POPC      HA            -25.2627352041      -22.0757341692      -17.2930264417  MEMB      84              0.0000000000
     12021       136  POPC      HB            -24.5789657203      -20.4106735300      -17.3187025478  MEMB      84              0.0000000000
     12022       136  POPC      C2            -24.5614233030      -21.3613849885      -15.3744428313  MEMB      84              0.0000000000
     12023       136  POPC      HS            -25.4547064837      -20.7458459979      -15.1200955438  MEMB      84              0.0000000000
     12024       136  POPC      O21           -23.4036964993      -20.8075769495      -14.7314883123  MEMB      84              0.0000000000
     12025       136  POPC      C21           -23.1066255233      -19.5558425422      -14.9718453776  MEMB      84              0.0000000000
     12026       136  POPC      O22           -23.7171549824      -18.7698699606      -15.6777048382  MEMB      84              0.0000000000
     12027       136  POPC      C22           -21.9138723295      -19.1611371781      -14.1071179803  MEMB      84              0.0000000000
     12028       136  POPC      H2R           -21.7680749925      -18.0690967702      -14.2468932476  MEMB      84              0.0000000000
     12029       136  POPC      H2S           -21.0209346527      -19.7030590084      -14.4783365002  MEMB      84              0.0000000000
     12030       136  POPC      C3            -24.8050250128      -22.7812707703      -14.8011711209  MEMB      84              0.0000000000
     12031       136  POPC      HX            -24.1249831415      -23.4958512880      -15.3272751791  MEMB      84              0.0000000000
     12032       136  POPC      HY            -25.8493777242      -23.0780833906      -15.0482103276  MEMB      84              0.0000000000
     12033       136  POPC      O31           -24.6402912552      -22.7945974078      -13.3668980482  MEMB      84              0.0000000000
     12034       136  POPC      C31           -23.4061825898      -23.0565300699      -12.9476926469  MEMB      84              0.0000000000
     12035       136  POPC      O32           -22.4773528751      -23.4371593965      -13.6335815295  MEMB      84              0.0000000000
     12036       136  POPC      C32           -23.3315473617      -22.8717425190      -11.4351605982  MEMB      84              0.0000000000
     12037       136  POPC      H2X           -24.1021516492      -23.5154725057      -10.9664325913  MEMB      84              0.0000000000
     12038       136  POPC      H2Y           -23.5738496804      -21.8109236353      -11.2221446301  MEMB      84              0.0000000000
     12039       136  POPC      C23           -22.1554723620      -19.4771964636      -12.6092722350  MEMB      84              0.0000000000
     12040       136  POPC      H3R           -22.3282541011      -20.5668990938      -12.4935159323  MEMB      84              0.0000000000
     12041       136  POPC      H3S           -23.0643985844      -18.9401095214      -12.2529892057  MEMB      84              0.0000000000
     12042       136  POPC      C24           -20.9670731112      -19.0967176779      -11.7263307758  MEMB      84              0.0000000000
     12043       136  POPC      H4R           -20.7832786414      -18.0096020035      -11.8423568246  MEMB      84              0.0000000000
     12044       136  POPC      H4S           -20.0685501278      -19.6524397632      -12.0827798933  MEMB      84              0.0000000000
     12045       136  POPC      C25           -21.1630460951      -19.3760216585      -10.2334194772  MEMB      84              0.0000000000
     12046       136  POPC      H5R           -20.1662329903      -19.2791586802       -9.7413007238  MEMB      84              0.0000000000
     12047       136  POPC      H5S           -21.5061808426      -20.4192908681      -10.0812743802  MEMB      84              0.0000000000
     12048       136  POPC      C26           -22.1320025888      -18.4038716275       -9.5425913126  MEMB      84              0.0000000000
     12049       136  POPC      H6R           -23.1816402807      -18.6239465550       -9.8355973627  MEMB      84              0.0000000000
     12050       136  POPC      H6S           -21.9150008536      -17.3681486114       -9.8779388693  MEMB      84              0.0000000000
     12051       136  POPC      C27           -21.9916578792      -18.4494236774       -8.0139604669  MEMB      84              0.0000000000
     12052       136  POPC      H7R           -20.9288525691      -18.6691653355       -7.7647734694  MEMB      84              0.0000000000
     12053       136  POPC      H7S           -22.6237562631      -19.2767621984       -7.6215188956  MEMB      84              0.0000000000
     12054       136  POPC      C28           -22.3137733554      -17.1478495028       -7.2716964337  MEMB      84              0.0000000000
     12055       136  POPC      H8R           -21.5085283225      -16.4122979203       -7.4723573680  MEMB      84              0.0000000000
     12056       136  POPC      H8S           -22.2646481227      -17.3674363914       -6.1801402907  MEMB      84              0.0000000000
     12057       136  POPC      C29           -23.6416189459      -16.5682725011       -7.6574225025  MEMB      84              0.0000000000
     12058       136  POPC      H91           -23.6022082147      -15.8142444142       -8.4599930185  MEMB      84              0.0000000000
     12059       136  POPC      C210          -24.8278574788      -16.9276088823       -7.1446784909  MEMB      84              0.0000000000
     12060       136  POPC      H101          -25.7219188958      -16.3932044221       -7.4924949739  MEMB      84              0.0000000000
     12061       136  POPC      C211          -25.0790917902      -17.9774910622       -6.0872341166  MEMB      84              0.0000000000
     12062       136  POPC      H11R          -24.2126741647      -18.6615457636       -5.9461843614  MEMB      84              0.0000000000
     12063       136  POPC      H11S          -25.9335506744      -18.6154259765       -6.4071872149  MEMB      84              0.0000000000
     12064       136  POPC      C212          -25.4383200187      -17.3579655272       -4.7269775612  MEMB      84              0.0000000000
     12065       136  POPC      H12R          -25.8586391379      -18.1379300144       -4.0534458721  MEMB      84              0.0000000000
     12066       136  POPC      H12S          -26.2435692408      -16.6080561399       -4.8891847127  MEMB      84              0.0000000000
     12067       136  POPC      C213          -24.2551423488      -16.6802537348       -4.0208983838  MEMB      84              0.0000000000
     12068       136  POPC      H13R          -24.6183636635      -15.7945491180       -3.4577122789  MEMB      84              0.0000000000
     12069       136  POPC      H13S          -23.5433832023      -16.2844471075       -4.7762551465  MEMB      84              0.0000000000
     12070       136  POPC      C214          -23.5095586580      -17.6134410723       -3.0549021600  MEMB      84              0.0000000000
     12071       136  POPC      H14R          -22.4204696513      -17.5140603996       -3.2692083309  MEMB      84              0.0000000000
     12072       136  POPC      H14S          -23.7695771512      -18.6742620401       -3.2539701066  MEMB      84              0.0000000000
     12073       136  POPC      C215          -23.7264859908      -17.2703138239       -1.5676872616  MEMB      84              0.0000000000
     12074       136  POPC      H15R          -24.6522827581      -17.7542181179       -1.1914619111  MEMB      84              0.0000000000
     12075       136  POPC      H15S          -23.8643675766      -16.1712851744       -1.4566907605  MEMB      84              0.0000000000
     12076       136  POPC      C216          -22.5232746767      -17.6759046568       -0.7053867980  MEMB      84              0.0000000000
     12077       136  POPC      H16R          -22.6606592196      -17.3052610615        0.3348886687  MEMB      84              0.0000000000
     12078       136  POPC      H16S          -21.6075907964      -17.1908782901       -1.1150912357  MEMB      84              0.0000000000
     12079       136  POPC      C217          -22.3055104675      -19.1905029218       -0.6769812203  MEMB      84              0.0000000000
     12080       136  POPC      H17R          -22.3058967306      -19.5811630387       -1.7192477759  MEMB      84              0.0000000000
     12081       136  POPC      H17S          -23.1544832586      -19.6642156674       -0.1357202330  MEMB      84              0.0000000000
     12082       136  POPC      C218          -20.9932682341      -19.5947657040       -0.0185393420  MEMB      84              0.0000000000
     12083       136  POPC      H18R          -20.1413187698      -19.2548928640       -0.6468961459  MEMB      84              0.0000000000
     12084       136  POPC      H18S          -20.9305316945      -20.6980901189        0.0964191725  MEMB      84              0.0000000000
     12085       136  POPC      H18T          -20.9112983074      -19.1202227950        0.9819754647  MEMB      84              0.0000000000
     12086       136  POPC      C33           -21.9332171901      -23.2217159023      -10.8804450833  MEMB      84              0.0000000000
     12087       136  POPC      H3X           -21.1786608088      -22.5242036139      -11.3154201924  MEMB      84              0.0000000000
     12088       136  POPC      H3Y           -21.6394298860      -24.2540134679      -11.1770709461  MEMB      84              0.0000000000
     12089       136  POPC      C34           -21.8834775840      -23.0978727212       -9.3538400044  MEMB      84              0.0000000000
     12090       136  POPC      H4X           -22.4786367706      -23.9076174643       -8.8785974683  MEMB      84              0.0000000000
     12091       136  POPC      H4Y           -22.3716841484      -22.1349618022       -9.0885788936  MEMB      84              0.0000000000
     12092       136  POPC      C35           -20.4477122645      -23.1127185250       -8.8111493799  MEMB      84              0.0000000000
     12093       136  POPC      H5X           -19.8375074116      -22.3797159077       -9.3875911004  MEMB      84              0.0000000000
     12094       136  POPC      H5Y           -20.0023839413      -24.1195743095       -8.9737157539  MEMB      84              0.0000000000
     12095       136  POPC      C36           -20.3419850108      -22.7445978307       -7.3223007771  MEMB      84              0.0000000000
     12096       136  POPC      H6X           -19.2727304170      -22.8023641515       -7.0298120358  MEMB      84              0.0000000000
     12097       136  POPC      H6Y           -20.9123405255      -23.4791497415       -6.7162760128  MEMB      84              0.0000000000
     12098       136  POPC      C37           -20.8504211880      -21.3296358895       -7.0188099765  MEMB      84              0.0000000000
     12099       136  POPC      H7X           -21.9574612364      -21.3180199060       -7.1285699748  MEMB      84              0.0000000000
     12100       136  POPC      H7Y           -20.4157343758      -20.6606258503       -7.7922421122  MEMB      84              0.0000000000
     12101       136  POPC      C38           -20.4886865916      -20.7601518168       -5.6364409293  MEMB      84              0.0000000000
     12102       136  POPC      H8X           -21.0535951414      -19.8143963306       -5.4671362396  MEMB      84              0.0000000000
     12103       136  POPC      H8Y           -19.4177903207      -20.4869981608       -5.6230248035  MEMB      84              0.0000000000
     12104       136  POPC      C39           -20.7598655722      -21.7132785822       -4.4715239054  MEMB      84              0.0000000000
     12105       136  POPC      H9X           -20.2205280961      -21.3427520216       -3.5695302349  MEMB      84              0.0000000000
     12106       136  POPC      H9Y           -20.3708356486      -22.7318091128       -4.6856831411  MEMB      84              0.0000000000
     12107       136  POPC      C310          -22.2493898197      -21.7678769045       -4.1469556459  MEMB      84              0.0000000000
     12108       136  POPC      H10X          -22.8310173318      -22.0849240313       -5.0420707560  MEMB      84              0.0000000000
     12109       136  POPC      H10Y          -22.5825333745      -20.7388819666       -3.8802336502  MEMB      84              0.0000000000
     12110       136  POPC      C311          -22.5611044628      -22.7128520480       -2.9886441002  MEMB      84              0.0000000000
     12111       136  POPC      H11X          -21.7087299450      -22.7306590008       -2.2723768579  MEMB      84              0.0000000000
     12112       136  POPC      H11Y          -22.6695394629      -23.7314984086       -3.4094496698  MEMB      84              0.0000000000
     12113       136  POPC      C312          -23.8175551358      -22.2968969714       -2.2184067157  MEMB      84              0.0000000000
     12114       136  POPC      H12X          -23.5741049864      -21.3399062348       -1.7153243061  MEMB      84              0.0000000000
     12115       136  POPC      H12Y          -24.0410550102      -23.0251355366       -1.4147964854  MEMB      84              0.0000000000
     12116       136  POPC      C313          -25.0566969035      -22.1042467174       -3.1008895999  MEMB      84              0.0000000000
     12117       136  POPC      H13X          -25.3248443311      -23.0721222969       -3.5798416661  MEMB      84              0.0000000000
     12118       136  POPC      H13Y          -24.8267989843      -21.3851130666       -3.9185445213  MEMB      84              0.0000000000
     12119       136  POPC      C314          -26.2746457033      -21.5529262547       -2.3427327939  MEMB      84              0.0000000000
     12120       136  POPC      H14X          -26.7379518536      -22.3565854549       -1.7312587445  MEMB      84              0.0000000000
     12121       136  POPC      H14Y          -27.0162262275      -21.2492112851       -3.1167817409  MEMB      84              0.0000000000
     12122       136  POPC      C315          -25.9834001252      -20.3438087419       -1.4366930655  MEMB      84              0.0000000000
     12123       136  POPC      H15X          -26.8045177170      -19.6042053437       -1.5460282831  MEMB      84              0.0000000000
     12124       136  POPC      H15Y          -25.0649763124      -19.8381039002       -1.7990791887  MEMB      84              0.0000000000
     12125       136  POPC      C316          -25.8379725704      -20.6934523547        0.0506793883  MEMB      84              0.0000000000
     12126       136  POPC      H16X          -25.5466552944      -19.7972009888        0.6384162967  MEMB      84              0.0000000000
     12127       136  POPC      H16Y          -25.0501398412      -21.4622529980        0.1875826194  MEMB      84              0.0000000000
     12128       136  POPC      H16Z          -26.7924548107      -21.0927578307        0.4564831001  MEMB      84              0.0000000000
     12129       137  POPC      N             -12.5558593476       27.6130366428      -21.0701863446  MEMB      85              0.0000000000
     12130       137  POPC      C12           -12.5382501035       26.1103124898      -21.2184313939  MEMB      85              0.0000000000
     12131       137  POPC      H12A          -11.5215643048       25.8287439200      -21.4511760551  MEMB      85              0.0000000000
     12132       137  POPC      H12B          -13.1634215696       25.8102399014      -22.0481199351  MEMB      85              0.0000000000
     12133       137  POPC      C13           -13.7494034569       28.0754501066      -20.2898957486  MEMB      85              0.0000000000
     12134       137  POPC      H13A          -14.6777998917       27.7343043480      -20.7216569182  MEMB      85              0.0000000000
     12135       137  POPC      H13B          -13.6976858529       27.6853398932      -19.2713369146  MEMB      85              0.0000000000
     12136       137  POPC      H13C          -13.7708009904       29.1656143000      -20.2631435400  MEMB      85              0.0000000000
     12137       137  POPC      C14           -11.3498216456       27.9687410051      -20.2622097662  MEMB      85              0.0000000000
     12138       137  POPC      H14A          -10.4471065096       27.5921829083      -20.7229245242  MEMB      85              0.0000000000
     12139       137  POPC      H14B          -11.2482829677       29.0443495556      -20.1460375048  MEMB      85              0.0000000000
     12140       137  POPC      H14C          -11.4357919002       27.5037511734      -19.2792823711  MEMB      85              0.0000000000
     12141       137  POPC      C15           -12.4646886156       28.3298737005      -22.3784408419  MEMB      85              0.0000000000
     12142       137  POPC      H15A          -12.4204951935       29.4128088577      -22.2418896964  MEMB      85              0.0000000000
     12143       137  POPC      H15B          -13.3221035208       28.1390589202      -23.0062994705  MEMB      85              0.0000000000
     12144       137  POPC      H15C          -11.5537743948       28.0860978658      -22.9103031591  MEMB      85              0.0000000000
     12145       137  POPC      C11           -12.9524037334       25.3105026889      -19.9596023950  MEMB      85              0.0000000000
     12146       137  POPC      H11A          -12.7417334218       24.2274549648      -20.1147759919  MEMB      85              0.0000000000
     12147       137  POPC      H11B          -14.0649280134       25.4306855565      -19.8853609863  MEMB      85              0.0000000000
     12148       137  POPC      P             -12.9530855235       25.3784311507      -17.3877840247  MEMB      85              0.0000000000
     12149       137  POPC      O13           -12.4292874274       24.0647201954      -16.9726497875  MEMB      85              0.0000000000
     12150       137  POPC      O14           -14.4118205003       25.5371309125      -17.5412800637  MEMB      85              0.0000000000
     12151       137  POPC      O12           -12.2637378524       25.7683535520      -18.7804538114  MEMB      85              0.0000000000
     12152       137  POPC      O11           -12.4596697189       26.5000255909      -16.3953156494  MEMB      85              0.0000000000
     12153       137  POPC      C1            -11.7501955425       27.6951975294      -16.6467270352  MEMB      85              0.0000000000
     12154       137  POPC      HA            -12.4240445261       28.4747938500      -17.0716353346  MEMB      85              0.0000000000
     12155       137  POPC      HB            -10.9176323160       27.5168182296      -17.3634193359  MEMB      85              0.0000000000
     12156       137  POPC      C2            -11.1515446467       28.2154986555      -15.2980735257  MEMB      85              0.0000000000
     12157       137  POPC      HS            -10.3373507836       28.9379116919      -15.5307817385  MEMB      85              0.0000000000
     12158       137  POPC      O21           -10.6426573524       27.1445898949      -14.4786970710  MEMB      85              0.0000000000
     12159       137  POPC      C21            -9.8222286110       26.3144160319      -15.1073970362  MEMB      85              0.0000000000
     12160       137  POPC      O22            -9.0397819547       26.6530142632      -15.9809009674  MEMB      85              0.0000000000
     12161       137  POPC      C22            -9.9694889975       24.9053219239      -14.5562531940  MEMB      85              0.0000000000
     12162       137  POPC      H2R            -9.3889647950       24.2471135385      -15.2396035221  MEMB      85              0.0000000000
     12163       137  POPC      H2S           -11.0352155822       24.6075492209      -14.6169648644  MEMB      85              0.0000000000
     12164       137  POPC      C3            -12.2041268530       28.9736460280      -14.4342910191  MEMB      85              0.0000000000
     12165       137  POPC      HX            -12.6626918575       29.7864734078      -15.0353031738  MEMB      85              0.0000000000
     12166       137  POPC      HY            -11.6603505835       29.4679817228      -13.5981589294  MEMB      85              0.0000000000
     12167       137  POPC      O31           -13.1797403267       28.0744454712      -13.8657849484  MEMB      85              0.0000000000
     12168       137  POPC      C31           -14.3028859758       27.9104464094      -14.5603121543  MEMB      85              0.0000000000
     12169       137  POPC      O32           -14.6467667432       28.6005276146      -15.5031241629  MEMB      85              0.0000000000
     12170       137  POPC      C32           -15.1562039335       26.8189144858      -13.9194831523  MEMB      85              0.0000000000
     12171       137  POPC      H2X           -14.7186217865       25.8373478283      -14.1991228875  MEMB      85              0.0000000000
     12172       137  POPC      H2Y           -16.1665124528       26.8825728607      -14.3741962419  MEMB      85              0.0000000000
     12173       137  POPC      C23            -9.4068712597       24.8052418022      -13.1268352849  MEMB      85              0.0000000000
     12174       137  POPC      H3R            -8.5574587648       25.5178356944      -13.0243208650  MEMB      85              0.0000000000
     12175       137  POPC      H3S            -9.0077120933       23.7767853837      -12.9730678797  MEMB      85              0.0000000000
     12176       137  POPC      C24           -10.4135738901       25.1002290591      -12.0106874329  MEMB      85              0.0000000000
     12177       137  POPC      H4R           -11.0746360816       24.2190670985      -11.8575326837  MEMB      85              0.0000000000
     12178       137  POPC      H4S           -11.0599176962       25.9569505028      -12.3063022159  MEMB      85              0.0000000000
     12179       137  POPC      C25            -9.6947418020       25.4646670842      -10.6999188319  MEMB      85              0.0000000000
     12180       137  POPC      H5R            -9.0800546571       26.3723033881      -10.8895759098  MEMB      85              0.0000000000
     12181       137  POPC      H5S            -9.0038043065       24.6403824903      -10.4133533006  MEMB      85              0.0000000000
     12182       137  POPC      C26           -10.6725816172       25.7376467000       -9.5515638824  MEMB      85              0.0000000000
     12183       137  POPC      H6R           -11.2198819473       24.7925950260       -9.3362059155  MEMB      85              0.0000000000
     12184       137  POPC      H6S           -11.4312462357       26.4799858887       -9.8850579307  MEMB      85              0.0000000000
     12185       137  POPC      C27           -10.0183601909       26.2485660358       -8.2534896406  MEMB      85              0.0000000000
     12186       137  POPC      H7R            -9.3205996146       25.4707815255       -7.8715638758  MEMB      85              0.0000000000
     12187       137  POPC      H7S           -10.8223271408       26.3681575368       -7.4932596036  MEMB      85              0.0000000000
     12188       137  POPC      C28            -9.2539658437       27.5870349332       -8.3640076278  MEMB      85              0.0000000000
     12189       137  POPC      H8R            -8.3337632746       27.4271064327       -8.9682937391  MEMB      85              0.0000000000
     12190       137  POPC      H8S            -8.9066217177       27.8677413307       -7.3432829380  MEMB      85              0.0000000000
     12191       137  POPC      C29           -10.0631030543       28.7093491891       -8.9636219242  MEMB      85              0.0000000000
     12192       137  POPC      H91            -9.7709699479       28.9943467353       -9.9859851939  MEMB      85              0.0000000000
     12193       137  POPC      C210          -11.0823819758       29.3664384835       -8.3832740666  MEMB      85              0.0000000000
     12194       137  POPC      H101          -11.5656947876       30.1777546094       -8.9472628654  MEMB      85              0.0000000000
     12195       137  POPC      C211          -11.6425256889       29.1315833893       -7.0022190425  MEMB      85              0.0000000000
     12196       137  POPC      H11R          -11.0043824403       28.4371019011       -6.4102479954  MEMB      85              0.0000000000
     12197       137  POPC      H11S          -12.6444353585       28.6521589900       -7.0708290992  MEMB      85              0.0000000000
     12198       137  POPC      C212          -11.7849163808       30.4415641730       -6.2012783807  MEMB      85              0.0000000000
     12199       137  POPC      H12R          -12.1759002524       30.1688436986       -5.1961162263  MEMB      85              0.0000000000
     12200       137  POPC      H12S          -12.5317195834       31.1130425429       -6.6800763787  MEMB      85              0.0000000000
     12201       137  POPC      C213          -10.4531628346       31.1911919012       -6.0296743350  MEMB      85              0.0000000000
     12202       137  POPC      H13R          -10.1066600422       31.5473458730       -7.0257441831  MEMB      85              0.0000000000
     12203       137  POPC      H13S           -9.6947791282       30.4714897271       -5.6472256126  MEMB      85              0.0000000000
     12204       137  POPC      C214          -10.5113369321       32.3967636988       -5.0769360369  MEMB      85              0.0000000000
     12205       137  POPC      H14R          -11.3278885687       33.0911633483       -5.3694987849  MEMB      85              0.0000000000
     12206       137  POPC      H14S           -9.5473839123       32.9469574899       -5.1927419856  MEMB      85              0.0000000000
     12207       137  POPC      C215          -10.6371705447       31.9969291489       -3.5989766522  MEMB      85              0.0000000000
     12208       137  POPC      H15R          -10.0114202411       32.6755391760       -2.9869222897  MEMB      85              0.0000000000
     12209       137  POPC      H15S          -10.2288689152       30.9700378945       -3.4692304354  MEMB      85              0.0000000000
     12210       137  POPC      C216          -12.0683042424       32.0631753599       -3.0557955691  MEMB      85              0.0000000000
     12211       137  POPC      H16R          -12.7544887869       31.7682209729       -3.8770837288  MEMB      85              0.0000000000
     12212       137  POPC      H16S          -12.3210740456       33.1100533128       -2.7782223475  MEMB      85              0.0000000000
     12213       137  POPC      C217          -12.3100391316       31.1253145511       -1.8627890105  MEMB      85              0.0000000000
     12214       137  POPC      H17R          -12.0366786025       30.0882460048       -2.1619855385  MEMB      85              0.0000000000
     12215       137  POPC      H17S          -13.4005662577       31.1218000762       -1.6435842749  MEMB      85              0.0000000000
     12216       137  POPC      C218          -11.5544205519       31.4971782930       -0.5827024593  MEMB      85              0.0000000000
     12217       137  POPC      H18R          -11.9256413929       30.8955383224        0.2744559422  MEMB      85              0.0000000000
     12218       137  POPC      H18S          -11.6965201905       32.5702473942       -0.3397848309  MEMB      85              0.0000000000
     12219       137  POPC      H18T          -10.4679909619       31.3061731983       -0.6977330523  MEMB      85              0.0000000000
     12220       137  POPC      C33           -15.2260817479       26.9883767116      -12.3837692058  MEMB      85              0.0000000000
     12221       137  POPC      H3X           -15.5286054542       28.0333095587      -12.1395575186  MEMB      85              0.0000000000
     12222       137  POPC      H3Y           -14.2090198798       26.8205153770      -11.9626297006  MEMB      85              0.0000000000
     12223       137  POPC      C34           -16.2115454578       26.0309370881      -11.7029257944  MEMB      85              0.0000000000
     12224       137  POPC      H4X           -15.9881443248       24.9876370047      -12.0202133941  MEMB      85              0.0000000000
     12225       137  POPC      H4Y           -17.2381401775       26.2799693257      -12.0586792450  MEMB      85              0.0000000000
     12226       137  POPC      C35           -16.1757582737       26.1187872180      -10.1649679320  MEMB      85              0.0000000000
     12227       137  POPC      H5X           -17.0232135967       25.5146895260       -9.7682748123  MEMB      85              0.0000000000
     12228       137  POPC      H5Y           -16.3367880626       27.1731131230       -9.8472393309  MEMB      85              0.0000000000
     12229       137  POPC      C36           -14.8708914316       25.5853042688       -9.5463874301  MEMB      85              0.0000000000
     12230       137  POPC      H6X           -14.0295296829       26.2795881419       -9.7674225066  MEMB      85              0.0000000000
     12231       137  POPC      H6Y           -14.6302150836       24.6095532604      -10.0264579983  MEMB      85              0.0000000000
     12232       137  POPC      C37           -14.9480625710       25.3618456931       -8.0259193597  MEMB      85              0.0000000000
     12233       137  POPC      H7X           -15.8584151141       24.7655369540       -7.7936399614  MEMB      85              0.0000000000
     12234       137  POPC      H7Y           -15.0388003082       26.3419910406       -7.5071561145  MEMB      85              0.0000000000
     12235       137  POPC      C38           -13.7193295259       24.6108288392       -7.4822205031  MEMB      85              0.0000000000
     12236       137  POPC      H8X           -12.8257739324       25.2600219304       -7.6045392076  MEMB      85              0.0000000000
     12237       137  POPC      H8Y           -13.5583171621       23.6922130780       -8.0893942645  MEMB      85              0.0000000000
     12238       137  POPC      C39           -13.8600621811       24.2087523857       -6.0064759799  MEMB      85              0.0000000000
     12239       137  POPC      H9X           -14.7927056190       23.6127089282       -5.8954308920  MEMB      85              0.0000000000
     12240       137  POPC      H9Y           -13.9792917714       25.1265921308       -5.3944664349  MEMB      85              0.0000000000
     12241       137  POPC      C310          -12.6941753508       23.3666767777       -5.4530966688  MEMB      85              0.0000000000
     12242       137  POPC      H10X          -12.6821398323       22.3916011878       -5.9912496526  MEMB      85              0.0000000000
     12243       137  POPC      H10Y          -12.8930239308       23.1443480423       -4.3808249027  MEMB      85              0.0000000000
     12244       137  POPC      C311          -11.2942085109       23.9954923060       -5.5899262912  MEMB      85              0.0000000000
     12245       137  POPC      H11X          -11.0673312624       24.1204462252       -6.6712322694  MEMB      85              0.0000000000
     12246       137  POPC      H11Y          -10.5508608378       23.2815216354       -5.1788703441  MEMB      85              0.0000000000
     12247       137  POPC      C312          -11.0954822795       25.3456123973       -4.8787657770  MEMB      85              0.0000000000
     12248       137  POPC      H12X          -11.9204526130       26.0309790968       -5.1605604078  MEMB      85              0.0000000000
     12249       137  POPC      H12Y          -10.1503059229       25.8075388174       -5.2456327421  MEMB      85              0.0000000000
     12250       137  POPC      C313          -10.9859236209       25.2104574608       -3.3528978421  MEMB      85              0.0000000000
     12251       137  POPC      H13X          -10.0632069601       24.6260464522       -3.1308305418  MEMB      85              0.0000000000
     12252       137  POPC      H13Y          -11.8482291370       24.6234481577       -2.9704996697  MEMB      85              0.0000000000
     12253       137  POPC      C314          -10.9179573783       26.5467266600       -2.5939867591  MEMB      85              0.0000000000
     12254       137  POPC      H14X          -10.4650158968       27.3321946042       -3.2382131236  MEMB      85              0.0000000000
     12255       137  POPC      H14Y          -10.2513614427       26.4113584533       -1.7089173124  MEMB      85              0.0000000000
     12256       137  POPC      C315          -12.2840293616       27.0125949950       -2.0610894413  MEMB      85              0.0000000000
     12257       137  POPC      H15X          -12.1269911475       27.9125263385       -1.4234682562  MEMB      85              0.0000000000
     12258       137  POPC      H15Y          -12.6896546736       26.2129470691       -1.3992737868  MEMB      85              0.0000000000
     12259       137  POPC      C316          -13.3151685756       27.3403319870       -3.1447021856  MEMB      85              0.0000000000
     12260       137  POPC      H16X          -12.9459451813       28.1613701526       -3.7974503863  MEMB      85              0.0000000000
     12261       137  POPC      H16Y          -14.2825465072       27.6491036086       -2.6984130361  MEMB      85              0.0000000000
     12262       137  POPC      H16Z          -13.5084900688       26.4495938405       -3.7754244073  MEMB      85              0.0000000000
     12263       138  POPC      N              22.5702329954       22.9190880774      -20.2541133295  MEMB      86              0.0000000000
     12264       138  POPC      C12            21.9133318206       21.5449585552      -20.1963537428  MEMB      86              0.0000000000
     12265       138  POPC      H12A           22.3821868650       20.9299681617      -19.4423527321  MEMB      86              0.0000000000
     12266       138  POPC      H12B           22.0313141726       21.0513596286      -21.1548461820  MEMB      86              0.0000000000
     12267       138  POPC      C13            21.7364105774       23.8175683282      -21.1107857563  MEMB      86              0.0000000000
     12268       138  POPC      H13A           20.7339271198       23.9271070723      -20.6887927793  MEMB      86              0.0000000000
     12269       138  POPC      H13B           22.1527216760       24.8160974592      -21.1843497096  MEMB      86              0.0000000000
     12270       138  POPC      H13C           21.6232693578       23.4002930559      -22.0967512494  MEMB      86              0.0000000000
     12271       138  POPC      C14            22.6103371664       23.4908707826      -18.8709739911  MEMB      86              0.0000000000
     12272       138  POPC      H14A           21.6310661440       23.2935351045      -18.4177846956  MEMB      86              0.0000000000
     12273       138  POPC      H14B           23.3440466254       23.0198590111      -18.2416164889  MEMB      86              0.0000000000
     12274       138  POPC      H14C           22.7396957073       24.5604917243      -18.8833929592  MEMB      86              0.0000000000
     12275       138  POPC      C15            23.9342822132       22.8956021941      -20.8449908193  MEMB      86              0.0000000000
     12276       138  POPC      H15A           23.9187254347       22.4520692307      -21.8421252565  MEMB      86              0.0000000000
     12277       138  POPC      H15B           24.6154414694       22.3228121684      -20.2380883928  MEMB      86              0.0000000000
     12278       138  POPC      H15C           24.2969643539       23.9187200997      -20.9402526549  MEMB      86              0.0000000000
     12279       138  POPC      C11            20.3972540473       21.5155086547      -19.8809054498  MEMB      86              0.0000000000
     12280       138  POPC      H11A           20.0967941784       20.4759938298      -19.6056306943  MEMB      86              0.0000000000
     12281       138  POPC      H11B           19.8884507220       21.7480224449      -20.8528883637  MEMB      86              0.0000000000
     12282       138  POPC      P              18.6727751796       23.1859112094      -18.9810758239  MEMB      86              0.0000000000
     12283       138  POPC      O13            17.6550982764       22.1940586094      -19.4075836084  MEMB      86              0.0000000000
     12284       138  POPC      O14            18.9809472783       24.3025144340      -19.9084427118  MEMB      86              0.0000000000
     12285       138  POPC      O12            20.0467926851       22.4156384283      -18.8119635853  MEMB      86              0.0000000000
     12286       138  POPC      O11            18.3219885788       23.8223878339      -17.5621847633  MEMB      86              0.0000000000
     12287       138  POPC      C1             19.4472311652       24.2213101623      -16.7749935246  MEMB      86              0.0000000000
     12288       138  POPC      HA             20.2277637503       24.7385516908      -17.3950396627  MEMB      86              0.0000000000
     12289       138  POPC      HB             19.9170946586       23.3216073155      -16.3153922748  MEMB      86              0.0000000000
     12290       138  POPC      C2             19.1392307269       25.2274703691      -15.6366138407  MEMB      86              0.0000000000
     12291       138  POPC      HS             19.5355528375       26.2136668114      -15.9935042807  MEMB      86              0.0000000000
     12292       138  POPC      O21            19.8582707052       24.7819711709      -14.4572888489  MEMB      86              0.0000000000
     12293       138  POPC      C21            20.1960399241       25.7632696394      -13.6091608624  MEMB      86              0.0000000000
     12294       138  POPC      O22            20.1426715297       26.9517842019      -13.8633568861  MEMB      86              0.0000000000
     12295       138  POPC      C22            20.5532472898       25.2239597868      -12.2119774872  MEMB      86              0.0000000000
     12296       138  POPC      H2R            19.5984282342       25.0871555422      -11.6639968617  MEMB      86              0.0000000000
     12297       138  POPC      H2S            21.1218271856       26.0351220969      -11.7073313228  MEMB      86              0.0000000000
     12298       138  POPC      C3             17.6452711591       25.5309805279      -15.1939722048  MEMB      86              0.0000000000
     12299       138  POPC      HX             17.4439460385       26.5200939598      -15.6294038516  MEMB      86              0.0000000000
     12300       138  POPC      HY             17.8162575543       25.7909765178      -14.1452361976  MEMB      86              0.0000000000
     12301       138  POPC      O31            16.4406503329       24.6869246484      -15.3421240568  MEMB      86              0.0000000000
     12302       138  POPC      C31            16.3305882529       23.5221935470      -14.6606007068  MEMB      86              0.0000000000
     12303       138  POPC      O32            17.3022603738       22.8817576776      -14.3108217265  MEMB      86              0.0000000000
     12304       138  POPC      C32            14.8146180943       22.9741713689      -14.4674022640  MEMB      86              0.0000000000
     12305       138  POPC      H2X            15.0485260148       21.9088026551      -14.3313657896  MEMB      86              0.0000000000
     12306       138  POPC      H2Y            14.3984091464       22.9686892604      -15.4917919287  MEMB      86              0.0000000000
     12307       138  POPC      C23            21.3605869461       23.8970531608      -12.1620102041  MEMB      86              0.0000000000
     12308       138  POPC      H3R            21.8061855539       23.7783737322      -11.1493209522  MEMB      86              0.0000000000
     12309       138  POPC      H3S            22.2108026538       23.9475884061      -12.8803212912  MEMB      86              0.0000000000
     12310       138  POPC      C24            20.4893681596       22.6606760304      -12.4657288320  MEMB      86              0.0000000000
     12311       138  POPC      H4R            20.9101976041       22.1389606719      -13.3547868063  MEMB      86              0.0000000000
     12312       138  POPC      H4S            19.4856831800       23.0207738508      -12.7844590803  MEMB      86              0.0000000000
     12313       138  POPC      C25            20.2766606468       21.6234731746      -11.3355749354  MEMB      86              0.0000000000
     12314       138  POPC      H5R            19.7661705725       22.1150841853      -10.4798709701  MEMB      86              0.0000000000
     12315       138  POPC      H5S            21.2562329865       21.2316576824      -10.9842679623  MEMB      86              0.0000000000
     12316       138  POPC      C26            19.4275537998       20.4538105786      -11.8823861241  MEMB      86              0.0000000000
     12317       138  POPC      H6R            20.0871469720       19.8590958067      -12.5580258424  MEMB      86              0.0000000000
     12318       138  POPC      H6S            18.6413465936       20.8873003429      -12.5415917590  MEMB      86              0.0000000000
     12319       138  POPC      C27            18.7105008878       19.4536018179      -10.9338508612  MEMB      86              0.0000000000
     12320       138  POPC      H7R            19.1663121077       18.4606086591      -11.1139696374  MEMB      86              0.0000000000
     12321       138  POPC      H7S            17.6788364924       19.3330733020      -11.3171917671  MEMB      86              0.0000000000
     12322       138  POPC      C28            18.6423931948       19.7426942029       -9.4140388018  MEMB      86              0.0000000000
     12323       138  POPC      H8R            17.9271111541       20.5734014688       -9.2213144064  MEMB      86              0.0000000000
     12324       138  POPC      H8S            19.6467052981       20.0817071715       -9.1016505048  MEMB      86              0.0000000000
     12325       138  POPC      C29            18.2742958242       18.4812338864       -8.6532384630  MEMB      86              0.0000000000
     12326       138  POPC      H91            18.6743618635       17.5733410625       -9.1230447241  MEMB      86              0.0000000000
     12327       138  POPC      C210           17.5695059901       18.2880250965       -7.5163315686  MEMB      86              0.0000000000
     12328       138  POPC      H101           17.5304024470       17.2577277783       -7.1365167262  MEMB      86              0.0000000000
     12329       138  POPC      C211           16.8275878554       19.2500427224       -6.6197521677  MEMB      86              0.0000000000
     12330       138  POPC      H11R           16.2158270858       18.6468088211       -5.9098224080  MEMB      86              0.0000000000
     12331       138  POPC      H11S           16.0862298005       19.7892511140       -7.2143788625  MEMB      86              0.0000000000
     12332       138  POPC      C212           17.6070554266       20.2447824004       -5.7122295255  MEMB      86              0.0000000000
     12333       138  POPC      H12R           17.9673895507       19.6774937265       -4.8249989590  MEMB      86              0.0000000000
     12334       138  POPC      H12S           16.9135584115       21.0107856063       -5.3044848819  MEMB      86              0.0000000000
     12335       138  POPC      C213           18.8080715542       20.9613575929       -6.3463609041  MEMB      86              0.0000000000
     12336       138  POPC      H13R           18.4960005673       21.7076476595       -7.1063243446  MEMB      86              0.0000000000
     12337       138  POPC      H13S           19.4267916332       20.1932612272       -6.8516532072  MEMB      86              0.0000000000
     12338       138  POPC      C214           19.6957637907       21.5999636283       -5.2794772738  MEMB      86              0.0000000000
     12339       138  POPC      H14R           19.5912632715       20.9385265647       -4.3919747209  MEMB      86              0.0000000000
     12340       138  POPC      H14S           19.3349664391       22.6103525644       -4.9940593857  MEMB      86              0.0000000000
     12341       138  POPC      C215           21.1905966252       21.5954764864       -5.6191387425  MEMB      86              0.0000000000
     12342       138  POPC      H15R           21.4591218531       22.4465929680       -6.2738717478  MEMB      86              0.0000000000
     12343       138  POPC      H15S           21.4259782073       20.6708729825       -6.1944868751  MEMB      86              0.0000000000
     12344       138  POPC      C216           22.0740282889       21.5728165464       -4.3620642607  MEMB      86              0.0000000000
     12345       138  POPC      H16R           23.1362741033       21.6430180827       -4.6867832777  MEMB      86              0.0000000000
     12346       138  POPC      H16S           21.9277036520       20.5914391434       -3.8603031176  MEMB      86              0.0000000000
     12347       138  POPC      C217           21.7946811948       22.6620971504       -3.3214165129  MEMB      86              0.0000000000
     12348       138  POPC      H17R           21.4406563933       23.5748793382       -3.8456541111  MEMB      86              0.0000000000
     12349       138  POPC      H17S           22.7682998049       22.9222138370       -2.8410490157  MEMB      86              0.0000000000
     12350       138  POPC      C218           20.8145832587       22.2363276122       -2.2141432105  MEMB      86              0.0000000000
     12351       138  POPC      H18R           21.3448622381       21.7188647779       -1.3879295308  MEMB      86              0.0000000000
     12352       138  POPC      H18S           20.0304906631       21.5545581361       -2.5836007493  MEMB      86              0.0000000000
     12353       138  POPC      H18T           20.2909719086       23.1050716230       -1.7820505024  MEMB      86              0.0000000000
     12354       138  POPC      C33            13.5276650729       23.3536288603      -13.4682279976  MEMB      86              0.0000000000
     12355       138  POPC      H3X            12.9522494540       22.4156011895      -13.6424474912  MEMB      86              0.0000000000
     12356       138  POPC      H3Y            12.8500023432       24.0638025934      -13.9390405525  MEMB      86              0.0000000000
     12357       138  POPC      C34            13.3105618583       23.4986277499      -11.8541261477  MEMB      86              0.0000000000
     12358       138  POPC      H4X            13.9009573985       22.7965496294      -11.2693827185  MEMB      86              0.0000000000
     12359       138  POPC      H4Y            12.2987539575       23.0716281376      -11.8088747048  MEMB      86              0.0000000000
     12360       138  POPC      C35            12.9862837865       24.7678281864      -10.9050337903  MEMB      86              0.0000000000
     12361       138  POPC      H5X            11.8793144142       24.8605648792      -10.8454354656  MEMB      86              0.0000000000
     12362       138  POPC      H5Y            13.3462041539       25.7492862192      -11.2170757161  MEMB      86              0.0000000000
     12363       138  POPC      C36            13.5456790231       24.7815400210       -9.4330387254  MEMB      86              0.0000000000
     12364       138  POPC      H6X            14.1562590556       23.8908236976       -9.3145907652  MEMB      86              0.0000000000
     12365       138  POPC      H6Y            12.6772012500       24.6268038493       -8.7574377478  MEMB      86              0.0000000000
     12366       138  POPC      C37            14.3191381582       26.0657722306       -8.9204241335  MEMB      86              0.0000000000
     12367       138  POPC      H7X            14.0665455510       26.2055320041       -7.8479894527  MEMB      86              0.0000000000
     12368       138  POPC      H7Y            13.8510794392       26.9265311274       -9.4496880193  MEMB      86              0.0000000000
     12369       138  POPC      C38            15.8826744652       26.3022664019       -8.9965201084  MEMB      86              0.0000000000
     12370       138  POPC      H8X            16.0400995772       27.3436738544       -8.6254284718  MEMB      86              0.0000000000
     12371       138  POPC      H8Y            16.2202764626       26.3230963853      -10.0411985869  MEMB      86              0.0000000000
     12372       138  POPC      C39            16.9395826002       25.4380729804       -8.2460404177  MEMB      86              0.0000000000
     12373       138  POPC      H9X            16.9582396650       24.4277116174       -8.6949078327  MEMB      86              0.0000000000
     12374       138  POPC      H9Y            16.6722491915       25.3541593509       -7.1737603670  MEMB      86              0.0000000000
     12375       138  POPC      C310           18.3934106968       25.9842887243       -8.4112561369  MEMB      86              0.0000000000
     12376       138  POPC      H10X           18.4881550447       26.9803619268       -7.9288962964  MEMB      86              0.0000000000
     12377       138  POPC      H10Y           18.5532160104       26.1284122931       -9.5029563064  MEMB      86              0.0000000000
     12378       138  POPC      C311           19.5672589762       25.0728185892       -7.9713103088  MEMB      86              0.0000000000
     12379       138  POPC      H11X           20.4999515472       25.3924301866       -8.4960765728  MEMB      86              0.0000000000
     12380       138  POPC      H11Y           19.3592164746       24.0233563579       -8.2819147457  MEMB      86              0.0000000000
     12381       138  POPC      C312           19.8797831872       25.0981802846       -6.4663023320  MEMB      86              0.0000000000
     12382       138  POPC      H12X           20.6364978009       24.3175702026       -6.2371569047  MEMB      86              0.0000000000
     12383       138  POPC      H12Y           18.9430484442       24.8248471989       -5.9352598055  MEMB      86              0.0000000000
     12384       138  POPC      C313           20.4515809062       26.4293551589       -5.9408558792  MEMB      86              0.0000000000
     12385       138  POPC      H13X           19.7076787851       27.2347208937       -6.1260887573  MEMB      86              0.0000000000
     12386       138  POPC      H13Y           21.3768836380       26.6904918392       -6.5004409217  MEMB      86              0.0000000000
     12387       138  POPC      C314           20.7777751554       26.4103843882       -4.4337364217  MEMB      86              0.0000000000
     12388       138  POPC      H14X           21.0305310762       27.4474970057       -4.1115433591  MEMB      86              0.0000000000
     12389       138  POPC      H14Y           21.6607312747       25.7702103043       -4.2290343405  MEMB      86              0.0000000000
     12390       138  POPC      C315           19.5910574787       25.9286708097       -3.5970872808  MEMB      86              0.0000000000
     12391       138  POPC      H15X           19.2854354257       24.8996877700       -3.8823980635  MEMB      86              0.0000000000
     12392       138  POPC      H15Y           18.7519441949       26.5871044400       -3.8835415387  MEMB      86              0.0000000000
     12393       138  POPC      C316           19.7896762941       25.9686184738       -2.0836533226  MEMB      86              0.0000000000
     12394       138  POPC      H16X           18.7995774766       26.0756684974       -1.6011088034  MEMB      86              0.0000000000
     12395       138  POPC      H16Y           20.4444134851       26.8037836860       -1.7638349706  MEMB      86              0.0000000000
     12396       138  POPC      H16Z           20.2483553326       25.0333788499       -1.7217022957  MEMB      86              0.0000000000
     12397       139  POPC      N              31.0881559324      -11.0353721275      -19.9587065055  MEMB      87              0.0000000000
     12398       139  POPC      C12            31.1877660789      -11.4030786142      -18.4826476926  MEMB      87              0.0000000000
     12399       139  POPC      H12A           31.0322178231      -10.5195077065      -17.8893425101  MEMB      87              0.0000000000
     12400       139  POPC      H12B           32.1808990509      -11.7771050812      -18.2727976621  MEMB      87              0.0000000000
     12401       139  POPC      C13            29.7581291189      -10.4100585956      -20.2246528259  MEMB      87              0.0000000000
     12402       139  POPC      H13A           29.6097203708      -10.2298526080      -21.2870198646  MEMB      87              0.0000000000
     12403       139  POPC      H13B           28.9721541939      -11.0665934800      -19.8756529244  MEMB      87              0.0000000000
     12404       139  POPC      H13C           29.6703438903       -9.4480657247      -19.7275233994  MEMB      87              0.0000000000
     12405       139  POPC      C14            32.1322401161      -10.0775884584      -20.4397772617  MEMB      87              0.0000000000
     12406       139  POPC      H14A           31.9672283194       -9.8725196896      -21.4955840698  MEMB      87              0.0000000000
     12407       139  POPC      H14B           32.0280400359       -9.1022524381      -19.9650457903  MEMB      87              0.0000000000
     12408       139  POPC      H14C           33.1510391894      -10.4108075092      -20.3273083266  MEMB      87              0.0000000000
     12409       139  POPC      C15            31.2259137905      -12.2978234073      -20.7510768597  MEMB      87              0.0000000000
     12410       139  POPC      H15A           31.0392181591      -12.1401438920      -21.8043282796  MEMB      87              0.0000000000
     12411       139  POPC      H15B           30.4903569956      -13.0285440908      -20.3895999951  MEMB      87              0.0000000000
     12412       139  POPC      H15C           32.1842181957      -12.7591637453      -20.5938090042  MEMB      87              0.0000000000
     12413       139  POPC      C11            30.2204135932      -12.4947946116      -17.9517870460  MEMB      87              0.0000000000
     12414       139  POPC      H11A           29.1657850477      -12.2318610837      -18.2030038247  MEMB      87              0.0000000000
     12415       139  POPC      H11B           30.3018289931      -12.5351336357      -16.8402733118  MEMB      87              0.0000000000
     12416       139  POPC      P              29.6147657866      -14.9605724137      -18.6572341082  MEMB      87              0.0000000000
     12417       139  POPC      O13            30.3051515492      -15.9471632274      -19.5285301503  MEMB      87              0.0000000000
     12418       139  POPC      O14            28.2959619508      -14.4724284403      -19.1195294132  MEMB      87              0.0000000000
     12419       139  POPC      O12            30.6087505050      -13.7501461838      -18.4852676480  MEMB      87              0.0000000000
     12420       139  POPC      O11            29.5523280328      -15.5999408150      -17.2199097221  MEMB      87              0.0000000000
     12421       139  POPC      C1             30.8342784829      -15.9090053749      -16.6488242071  MEMB      87              0.0000000000
     12422       139  POPC      HA             31.2495322880      -14.9856233902      -16.1797238508  MEMB      87              0.0000000000
     12423       139  POPC      HB             31.5824526605      -16.2864416537      -17.3914837719  MEMB      87              0.0000000000
     12424       139  POPC      C2             30.7142992234      -16.9922233985      -15.5624775056  MEMB      87              0.0000000000
     12425       139  POPC      HS             30.4950485403      -17.9720528279      -16.0480575573  MEMB      87              0.0000000000
     12426       139  POPC      O21            29.6969229615      -16.5922767565      -14.6514377123  MEMB      87              0.0000000000
     12427       139  POPC      C21            28.5358301637      -17.1593611875      -14.7247625248  MEMB      87              0.0000000000
     12428       139  POPC      O22            28.2379558648      -18.1478824979      -15.3755493321  MEMB      87              0.0000000000
     12429       139  POPC      C22            27.6300285957      -16.4321447575      -13.7188342041  MEMB      87              0.0000000000
     12430       139  POPC      H2R            26.9598675574      -17.1970371793      -13.2817630201  MEMB      87              0.0000000000
     12431       139  POPC      H2S            27.0236723659      -15.7137047287      -14.3104577040  MEMB      87              0.0000000000
     12432       139  POPC      C3             32.0280463807      -17.0947537448      -14.7702923601  MEMB      87              0.0000000000
     12433       139  POPC      HX             32.8717575456      -17.3461334725      -15.4480311421  MEMB      87              0.0000000000
     12434       139  POPC      HY             31.9036128324      -17.9250152816      -14.0333912453  MEMB      87              0.0000000000
     12435       139  POPC      O31            32.2461158259      -15.8150152716      -14.1377531368  MEMB      87              0.0000000000
     12436       139  POPC      C31            32.9668673651      -15.8840569605      -13.0411038116  MEMB      87              0.0000000000
     12437       139  POPC      O32            33.5944110585      -16.8669081289      -12.6823326902  MEMB      87              0.0000000000
     12438       139  POPC      C32            32.8643213450      -14.5768194962      -12.2652314903  MEMB      87              0.0000000000
     12439       139  POPC      H2X            31.8810990394      -14.5999294776      -11.7483419004  MEMB      87              0.0000000000
     12440       139  POPC      H2Y            32.8579679290      -13.7238074094      -12.9748555579  MEMB      87              0.0000000000
     12441       139  POPC      C23            28.3410810044      -15.6411625620      -12.5696512044  MEMB      87              0.0000000000
     12442       139  POPC      H3R            27.5780857224      -14.9906872472      -12.0850323756  MEMB      87              0.0000000000
     12443       139  POPC      H3S            29.1268203632      -14.9621185631      -12.9719101342  MEMB      87              0.0000000000
     12444       139  POPC      C24            28.9463054671      -16.5432705237      -11.4827518890  MEMB      87              0.0000000000
     12445       139  POPC      H4R            29.8288248109      -17.0637081033      -11.9184631122  MEMB      87              0.0000000000
     12446       139  POPC      H4S            28.1964409044      -17.3110538911      -11.1841957620  MEMB      87              0.0000000000
     12447       139  POPC      C25            29.4037260990      -15.8129570856      -10.2116673866  MEMB      87              0.0000000000
     12448       139  POPC      H5R            28.5079890543      -15.4919425085       -9.6328537267  MEMB      87              0.0000000000
     12449       139  POPC      H5S            29.9804471908      -14.9004770561      -10.4837540116  MEMB      87              0.0000000000
     12450       139  POPC      C26            30.2885096026      -16.7076918604       -9.3279282973  MEMB      87              0.0000000000
     12451       139  POPC      H6R            31.2767276379      -16.8393789395       -9.8263933164  MEMB      87              0.0000000000
     12452       139  POPC      H6S            29.8204243872      -17.7111179036       -9.2276266769  MEMB      87              0.0000000000
     12453       139  POPC      C27            30.5120346148      -16.1459106112       -7.9175270937  MEMB      87              0.0000000000
     12454       139  POPC      H7R            29.5666570022      -16.2019052366       -7.3359682126  MEMB      87              0.0000000000
     12455       139  POPC      H7S            30.7782291695      -15.0698334641       -8.0055976487  MEMB      87              0.0000000000
     12456       139  POPC      C28            31.6476535045      -16.8552214585       -7.1552665359  MEMB      87              0.0000000000
     12457       139  POPC      H8R            31.8643820043      -16.2677336545       -6.2356855297  MEMB      87              0.0000000000
     12458       139  POPC      H8S            32.5553271141      -16.7967070106       -7.7908694188  MEMB      87              0.0000000000
     12459       139  POPC      C29            31.3551970822      -18.3015454672       -6.8529482246  MEMB      87              0.0000000000
     12460       139  POPC      H91            31.2558903351      -18.9481974215       -7.7399001448  MEMB      87              0.0000000000
     12461       139  POPC      C210           31.2164708006      -18.8593222234       -5.6392149254  MEMB      87              0.0000000000
     12462       139  POPC      H101           30.9883906369      -19.9309756513       -5.5989915410  MEMB      87              0.0000000000
     12463       139  POPC      C211           31.3194109986      -18.1795197877       -4.2959255586  MEMB      87              0.0000000000
     12464       139  POPC      H11R           31.8491081414      -17.2122375763       -4.3692433165  MEMB      87              0.0000000000
     12465       139  POPC      H11S           31.9365641031      -18.8101120541       -3.6153917102  MEMB      87              0.0000000000
     12466       139  POPC      C212           29.9583194048      -17.9380118455       -3.6114707919  MEMB      87              0.0000000000
     12467       139  POPC      H12R           30.1155459250      -17.4658003496       -2.6185152200  MEMB      87              0.0000000000
     12468       139  POPC      H12S           29.4888739968      -18.9331074060       -3.4282901527  MEMB      87              0.0000000000
     12469       139  POPC      C213           28.9498716824      -17.0891322627       -4.4043209724  MEMB      87              0.0000000000
     12470       139  POPC      H13R           27.9513613908      -17.3012603583       -3.9638301577  MEMB      87              0.0000000000
     12471       139  POPC      H13S           28.9217663649      -17.4358446797       -5.4558690172  MEMB      87              0.0000000000
     12472       139  POPC      C214           29.1677079991      -15.5676064854       -4.4055738648  MEMB      87              0.0000000000
     12473       139  POPC      H14R           30.0859191398      -15.3393648643       -4.9880567670  MEMB      87              0.0000000000
     12474       139  POPC      H14S           29.3139462600      -15.1969461595       -3.3679546237  MEMB      87              0.0000000000
     12475       139  POPC      C215           27.9966379561      -14.8083623283       -5.0595935919  MEMB      87              0.0000000000
     12476       139  POPC      H15R           27.8408901535      -15.2248254419       -6.0811043101  MEMB      87              0.0000000000
     12477       139  POPC      H15S           28.2743593998      -13.7375065884       -5.1789647871  MEMB      87              0.0000000000
     12478       139  POPC      C216           26.6839406067      -14.9148419534       -4.2696499851  MEMB      87              0.0000000000
     12479       139  POPC      H16R           26.7693177358      -15.7035418587       -3.4916047507  MEMB      87              0.0000000000
     12480       139  POPC      H16S           25.8616157694      -15.2169009943       -4.9578857194  MEMB      87              0.0000000000
     12481       139  POPC      C217           26.2778577364      -13.6206515959       -3.5630388076  MEMB      87              0.0000000000
     12482       139  POPC      H17R           26.0516293507      -12.8445826484       -4.3283743483  MEMB      87              0.0000000000
     12483       139  POPC      H17S           27.1318686485      -13.2466529232       -2.9528596574  MEMB      87              0.0000000000
     12484       139  POPC      C218           25.0610811633      -13.8355324509       -2.6613373889  MEMB      87              0.0000000000
     12485       139  POPC      H18R           24.6524343302      -12.8636268142       -2.3216535519  MEMB      87              0.0000000000
     12486       139  POPC      H18S           25.3421970909      -14.4236653014       -1.7609017496  MEMB      87              0.0000000000
     12487       139  POPC      H18T           24.2622136671      -14.3858141315       -3.2039630759  MEMB      87              0.0000000000
     12488       139  POPC      C33            33.9820109959      -14.3924751459      -11.2079319811  MEMB      87              0.0000000000
     12489       139  POPC      H3X            34.8061314806      -13.7846441178      -11.6439376009  MEMB      87              0.0000000000
     12490       139  POPC      H3Y            34.4135235008      -15.3691221945      -10.8874063788  MEMB      87              0.0000000000
     12491       139  POPC      C34            33.4202661790      -13.7175745002       -9.9537064215  MEMB      87              0.0000000000
     12492       139  POPC      H4X            32.7143889146      -14.4343633568       -9.4751843874  MEMB      87              0.0000000000
     12493       139  POPC      H4Y            32.8310106059      -12.8243707226      -10.2546952567  MEMB      87              0.0000000000
     12494       139  POPC      C35            34.4924713006      -13.3072023943       -8.9386088218  MEMB      87              0.0000000000
     12495       139  POPC      H5X            35.2803047241      -12.7024545989       -9.4409573371  MEMB      87              0.0000000000
     12496       139  POPC      H5Y            34.9750297128      -14.2292982938       -8.5454039382  MEMB      87              0.0000000000
     12497       139  POPC      C36            33.9290304986      -12.5034599208       -7.7540848234  MEMB      87              0.0000000000
     12498       139  POPC      H6X            33.7335436548      -11.4567433426       -8.0769236297  MEMB      87              0.0000000000
     12499       139  POPC      H6Y            34.7143939868      -12.4753486267       -6.9678337317  MEMB      87              0.0000000000
     12500       139  POPC      C37            32.6243419083      -13.0882460965       -7.1890769378  MEMB      87              0.0000000000
     12501       139  POPC      H7X            32.7634700948      -14.1783943996       -7.0174592295  MEMB      87              0.0000000000
     12502       139  POPC      H7Y            31.8157099592      -12.9671078745       -7.9466277619  MEMB      87              0.0000000000
     12503       139  POPC      C38            32.1322505617      -12.4336398700       -5.8924784257  MEMB      87              0.0000000000
     12504       139  POPC      H8X            31.2089618439      -12.9597225150       -5.5549908365  MEMB      87              0.0000000000
     12505       139  POPC      H8Y            31.8565477876      -11.3761021854       -6.1142270943  MEMB      87              0.0000000000
     12506       139  POPC      C39            33.1544791650      -12.4347073552       -4.7483152601  MEMB      87              0.0000000000
     12507       139  POPC      H9X            32.6854278503      -11.9160641828       -3.8876356918  MEMB      87              0.0000000000
     12508       139  POPC      H9Y            34.0448488600      -11.8359216867       -5.0392509792  MEMB      87              0.0000000000
     12509       139  POPC      C310           33.6172231905      -13.8197813951       -4.2674449660  MEMB      87              0.0000000000
     12510       139  POPC      H10X           34.4987213416      -13.6516851426       -3.6136308122  MEMB      87              0.0000000000
     12511       139  POPC      H10Y           33.9564132037      -14.4474565490       -5.1171496104  MEMB      87              0.0000000000
     12512       139  POPC      C311           32.5486097028      -14.5462831469       -3.4332298566  MEMB      87              0.0000000000
     12513       139  POPC      H11X           31.9372930742      -15.1776776828       -4.1025140679  MEMB      87              0.0000000000
     12514       139  POPC      H11Y           31.8638505264      -13.7835088953       -3.0144745421  MEMB      87              0.0000000000
     12515       139  POPC      C312           33.1088407062      -15.3896381182       -2.2738839631  MEMB      87              0.0000000000
     12516       139  POPC      H12X           34.0050853420      -14.8978966760       -1.8360110155  MEMB      87              0.0000000000
     12517       139  POPC      H12Y           33.4442611817      -16.3650596731       -2.6879311805  MEMB      87              0.0000000000
     12518       139  POPC      C313           32.0968231368      -15.6822533275       -1.1483995692  MEMB      87              0.0000000000
     12519       139  POPC      H13X           32.4212359871      -16.6437403416       -0.6807241472  MEMB      87              0.0000000000
     12520       139  POPC      H13Y           31.0793690746      -15.8367459903       -1.5571785021  MEMB      87              0.0000000000
     12521       139  POPC      C314           32.0963935710      -14.6372090678       -0.0175409259  MEMB      87              0.0000000000
     12522       139  POPC      H14X           33.1472252352      -14.3112091134        0.1218240188  MEMB      87              0.0000000000
     12523       139  POPC      H14Y           31.8027445676      -15.1182184083        0.9361387448  MEMB      87              0.0000000000
     12524       139  POPC      C315           31.1840650117      -13.4118677565       -0.2155567380  MEMB      87              0.0000000000
     12525       139  POPC      H15X           31.3241798987      -13.0015465897       -1.2347536333  MEMB      87              0.0000000000
     12526       139  POPC      H15Y           31.5185373439      -12.6190889665        0.4923718624  MEMB      87              0.0000000000
     12527       139  POPC      C316           29.6893437775      -13.6511746457        0.0255023469  MEMB      87              0.0000000000
     12528       139  POPC      H16X           29.3403888430      -14.5521712746       -0.5211635548  MEMB      87              0.0000000000
     12529       139  POPC      H16Y           29.1007717269      -12.7762950770       -0.3287440692  MEMB      87              0.0000000000
     12530       139  POPC      H16Z           29.4860560415      -13.7914149158        1.1081780586  MEMB      87              0.0000000000
     12531       140  POPC      N             -19.7612897189      -27.4224260802      -20.2227570246  MEMB      88              0.0000000000
     12532       140  POPC      C12           -19.4542241900      -27.4835851250      -18.7455186134  MEMB      88              0.0000000000
     12533       140  POPC      H12A          -18.8883490443      -28.3907666566      -18.5600438578  MEMB      88              0.0000000000
     12534       140  POPC      H12B          -20.3717457062      -27.4972640194      -18.1843147069  MEMB      88              0.0000000000
     12535       140  POPC      C13           -20.7857852382      -28.4046961509      -20.6310050961  MEMB      88              0.0000000000
     12536       140  POPC      H13A          -21.7577735391      -28.1356612095      -20.2436907966  MEMB      88              0.0000000000
     12537       140  POPC      H13B          -20.8646793185      -28.3580581317      -21.7215517683  MEMB      88              0.0000000000
     12538       140  POPC      H13C          -20.4957714740      -29.4163789375      -20.4030385589  MEMB      88              0.0000000000
     12539       140  POPC      C14           -20.3038694829      -26.0672003393      -20.5852919761  MEMB      88              0.0000000000
     12540       140  POPC      H14A          -20.6009500732      -26.0346746652      -21.6295299478  MEMB      88              0.0000000000
     12541       140  POPC      H14B          -21.1479347933      -25.7813087292      -19.9617534679  MEMB      88              0.0000000000
     12542       140  POPC      H14C          -19.5356429142      -25.3196539008      -20.4107026247  MEMB      88              0.0000000000
     12543       140  POPC      C15           -18.5348926692      -27.6596531135      -21.0498948740  MEMB      88              0.0000000000
     12544       140  POPC      H15A          -18.0548321768      -28.6024996229      -20.8407043955  MEMB      88              0.0000000000
     12545       140  POPC      H15B          -17.7906701048      -26.8936016777      -20.7974079694  MEMB      88              0.0000000000
     12546       140  POPC      H15C          -18.7356032000      -27.5766964349      -22.1145646838  MEMB      88              0.0000000000
     12547       140  POPC      C11           -18.5576036249      -26.3667286944      -18.2145456702  MEMB      88              0.0000000000
     12548       140  POPC      H11A          -18.4900452308      -26.4269206135      -17.1030215236  MEMB      88              0.0000000000
     12549       140  POPC      H11B          -18.9334891693      -25.3507360438      -18.4741469366  MEMB      88              0.0000000000
     12550       140  POPC      P             -16.0502857925      -25.7473061085      -18.5683689749  MEMB      88              0.0000000000
     12551       140  POPC      O13           -16.3205123223      -24.8300026532      -17.4432859598  MEMB      88              0.0000000000
     12552       140  POPC      O14           -15.6857242010      -25.1695578726      -19.8814627500  MEMB      88              0.0000000000
     12553       140  POPC      O12           -17.3122871883      -26.6228574317      -18.8152134417  MEMB      88              0.0000000000
     12554       140  POPC      O11           -14.9606356055      -26.8316235937      -18.1481289063  MEMB      88              0.0000000000
     12555       140  POPC      C1            -15.2986515328      -28.2057339784      -17.9075568066  MEMB      88              0.0000000000
     12556       140  POPC      HA            -14.4432308167      -28.8499305930      -18.2142418174  MEMB      88              0.0000000000
     12557       140  POPC      HB            -16.1602722970      -28.5504259502      -18.5252292750  MEMB      88              0.0000000000
     12558       140  POPC      C2            -15.5872998641      -28.5895873420      -16.4170538105  MEMB      88              0.0000000000
     12559       140  POPC      HS            -15.7307861799      -29.6953044589      -16.4400917279  MEMB      88              0.0000000000
     12560       140  POPC      O21           -16.7745883620      -27.9291933866      -15.9350755868  MEMB      88              0.0000000000
     12561       140  POPC      C21           -17.3983407561      -28.5755425651      -14.9722612190  MEMB      88              0.0000000000
     12562       140  POPC      O22           -17.1362794142      -29.6949515067      -14.5704335338  MEMB      88              0.0000000000
     12563       140  POPC      C22           -18.5525885538      -27.7139722862      -14.4635373856  MEMB      88              0.0000000000
     12564       140  POPC      H2R           -19.4708323010      -28.0413046822      -14.9920032270  MEMB      88              0.0000000000
     12565       140  POPC      H2S           -18.3602404027      -26.6475916661      -14.7055884501  MEMB      88              0.0000000000
     12566       140  POPC      C3            -14.3851576498      -28.2855644486      -15.4451143834  MEMB      88              0.0000000000
     12567       140  POPC      HX            -13.4710183687      -28.6550871961      -15.9577214918  MEMB      88              0.0000000000
     12568       140  POPC      HY            -14.5628634477      -28.9059807220      -14.5355353346  MEMB      88              0.0000000000
     12569       140  POPC      O31           -14.1987314768      -26.8976365495      -15.0878343883  MEMB      88              0.0000000000
     12570       140  POPC      C31           -13.4233056132      -26.6815764693      -14.0159505415  MEMB      88              0.0000000000
     12571       140  POPC      O32           -12.8243901228      -27.5443308037      -13.3942432043  MEMB      88              0.0000000000
     12572       140  POPC      C32           -13.3854101080      -25.1571841385      -13.7906269096  MEMB      88              0.0000000000
     12573       140  POPC      H2X           -14.4309303401      -24.7915456899      -13.8340013140  MEMB      88              0.0000000000
     12574       140  POPC      H2Y           -12.8262215746      -24.7221701242      -14.6472933913  MEMB      88              0.0000000000
     12575       140  POPC      C23           -18.7265115659      -27.8922576825      -12.9444875315  MEMB      88              0.0000000000
     12576       140  POPC      H3R           -18.9621647613      -28.9589230211      -12.7203242678  MEMB      88              0.0000000000
     12577       140  POPC      H3S           -19.5894524273      -27.2790951594      -12.5974661869  MEMB      88              0.0000000000
     12578       140  POPC      C24           -17.4740908141      -27.4826836954      -12.1558797065  MEMB      88              0.0000000000
     12579       140  POPC      H4R           -17.1992479264      -26.4285548744      -12.3832984190  MEMB      88              0.0000000000
     12580       140  POPC      H4S           -16.6214171885      -28.1265275459      -12.4711534444  MEMB      88              0.0000000000
     12581       140  POPC      C25           -17.6849712562      -27.6626697896      -10.6490399923  MEMB      88              0.0000000000
     12582       140  POPC      H5R           -18.1100900656      -28.6687290814      -10.4745282027  MEMB      88              0.0000000000
     12583       140  POPC      H5S           -18.4234002440      -26.9144965399      -10.2870873103  MEMB      88              0.0000000000
     12584       140  POPC      C26           -16.4004023428      -27.6051377335       -9.8164541628  MEMB      88              0.0000000000
     12585       140  POPC      H6R           -16.6843334290      -27.6745236815       -8.7432292659  MEMB      88              0.0000000000
     12586       140  POPC      H6S           -15.9205267598      -26.6200856697       -9.9804672070  MEMB      88              0.0000000000
     12587       140  POPC      C27           -15.4060211892      -28.7339137953      -10.1506977389  MEMB      88              0.0000000000
     12588       140  POPC      H7R           -14.7450734701      -28.3648794803      -10.9699163610  MEMB      88              0.0000000000
     12589       140  POPC      H7S           -15.9520209075      -29.6162907345      -10.5537483031  MEMB      88              0.0000000000
     12590       140  POPC      C28           -14.5220731552      -29.1637134636       -8.9582028907  MEMB      88              0.0000000000
     12591       140  POPC      H8R           -14.3774581391      -28.2821978611       -8.2963650316  MEMB      88              0.0000000000
     12592       140  POPC      H8S           -13.5171492474      -29.3917361674       -9.3753281557  MEMB      88              0.0000000000
     12593       140  POPC      C29           -15.0015960303      -30.3891433952       -8.2049422304  MEMB      88              0.0000000000
     12594       140  POPC      H91           -14.8454372425      -31.3397144936       -8.7400165168  MEMB      88              0.0000000000
     12595       140  POPC      C210          -15.5829985932      -30.4231923301       -6.9881786233  MEMB      88              0.0000000000
     12596       140  POPC      H101          -15.8820575462      -31.3905719510       -6.5576043748  MEMB      88              0.0000000000
     12597       140  POPC      C211          -15.8695389754      -29.2104852715       -6.1459811404  MEMB      88              0.0000000000
     12598       140  POPC      H11R          -16.5385798966      -28.5557193987       -6.7448324238  MEMB      88              0.0000000000
     12599       140  POPC      H11S          -14.9329311142      -28.6333887391       -5.9752716550  MEMB      88              0.0000000000
     12600       140  POPC      C212          -16.5700328331      -29.4135508433       -4.7769272077  MEMB      88              0.0000000000
     12601       140  POPC      H12R          -17.1786417927      -30.3422316515       -4.7594024996  MEMB      88              0.0000000000
     12602       140  POPC      H12S          -17.2842445702      -28.5675700220       -4.6456117801  MEMB      88              0.0000000000
     12603       140  POPC      C213          -15.6014405337      -29.3700212333       -3.5856041975  MEMB      88              0.0000000000
     12604       140  POPC      H13R          -14.7767234524      -28.6681307123       -3.8267654943  MEMB      88              0.0000000000
     12605       140  POPC      H13S          -15.1483393703      -30.3761844333       -3.4475099725  MEMB      88              0.0000000000
     12606       140  POPC      C214          -16.2212007079      -28.8993379126       -2.2556072092  MEMB      88              0.0000000000
     12607       140  POPC      H14R          -15.6612245595      -29.4132292194       -1.4414877239  MEMB      88              0.0000000000
     12608       140  POPC      H14S          -17.2772082002      -29.2217933411       -2.1728471169  MEMB      88              0.0000000000
     12609       140  POPC      C215          -16.0763012254      -27.3825552292       -1.9985677966  MEMB      88              0.0000000000
     12610       140  POPC      H15R          -16.7513742019      -26.8097193674       -2.6629265515  MEMB      88              0.0000000000
     12611       140  POPC      H15S          -15.0444914037      -27.1107078256       -2.2970513126  MEMB      88              0.0000000000
     12612       140  POPC      C216          -16.3563697313      -27.0161250114       -0.5238867261  MEMB      88              0.0000000000
     12613       140  POPC      H16R          -17.4114447524      -26.6733420782       -0.4248886685  MEMB      88              0.0000000000
     12614       140  POPC      H16S          -16.2783194975      -27.9529985205        0.0715497338  MEMB      88              0.0000000000
     12615       140  POPC      C217          -15.4364738903      -25.9808978504        0.1637821481  MEMB      88              0.0000000000
     12616       140  POPC      H17R          -15.3145217033      -26.3149795176        1.2208236176  MEMB      88              0.0000000000
     12617       140  POPC      H17S          -15.9569092487      -25.0027716344        0.2234864059  MEMB      88              0.0000000000
     12618       140  POPC      C218          -14.0394666891      -25.7734433404       -0.4297137838  MEMB      88              0.0000000000
     12619       140  POPC      H18R          -13.3522988716      -25.3329019304        0.3215494751  MEMB      88              0.0000000000
     12620       140  POPC      H18S          -14.0778368096      -25.0948635737       -1.3098194827  MEMB      88              0.0000000000
     12621       140  POPC      H18T          -13.6097422871      -26.7421861111       -0.7543421793  MEMB      88              0.0000000000
     12622       140  POPC      C33           -12.7426174125      -24.6642621637      -12.4707077943  MEMB      88              0.0000000000
     12623       140  POPC      H3X           -12.3682847328      -23.6259337081      -12.6235222399  MEMB      88              0.0000000000
     12624       140  POPC      H3Y           -11.8735439113      -25.2976803742      -12.1928727267  MEMB      88              0.0000000000
     12625       140  POPC      C34           -13.7271750292      -24.6104474699      -11.2996710679  MEMB      88              0.0000000000
     12626       140  POPC      H4X           -14.2081874546      -25.6111598159      -11.2160069205  MEMB      88              0.0000000000
     12627       140  POPC      H4Y           -14.5303273587      -23.8671792142      -11.5026922227  MEMB      88              0.0000000000
     12628       140  POPC      C35           -13.0453960929      -24.2833662037       -9.9570657080  MEMB      88              0.0000000000
     12629       140  POPC      H5X           -12.7072943894      -23.2240164394       -9.9397302389  MEMB      88              0.0000000000
     12630       140  POPC      H5Y           -12.1482052516      -24.9327346843       -9.8551395071  MEMB      88              0.0000000000
     12631       140  POPC      C36           -13.9853057966      -24.5552078469       -8.7788128123  MEMB      88              0.0000000000
     12632       140  POPC      H6X           -14.5816273722      -25.4565132212       -9.0336710461  MEMB      88              0.0000000000
     12633       140  POPC      H6Y           -14.6951889158      -23.7060516426       -8.6696959641  MEMB      88              0.0000000000
     12634       140  POPC      C37           -13.2999396045      -24.8830722977       -7.4424056872  MEMB      88              0.0000000000
     12635       140  POPC      H7X           -12.9326681434      -23.9463520577       -6.9686579057  MEMB      88              0.0000000000
     12636       140  POPC      H7Y           -12.4199802170      -25.5400041267       -7.6305628736  MEMB      88              0.0000000000
     12637       140  POPC      C38           -14.2558786899      -25.6281207295       -6.4910494331  MEMB      88              0.0000000000
     12638       140  POPC      H8X           -13.7615930113      -25.8129176783       -5.5122431596  MEMB      88              0.0000000000
     12639       140  POPC      H8Y           -14.4925987073      -26.6181837153       -6.9387685517  MEMB      88              0.0000000000
     12640       140  POPC      C39           -15.5792794913      -24.8821624121       -6.2817887399  MEMB      88              0.0000000000
     12641       140  POPC      H9X           -16.0395977689      -24.6403603491       -7.2652952466  MEMB      88              0.0000000000
     12642       140  POPC      H9Y           -15.3475582120      -23.9364914840       -5.7490193232  MEMB      88              0.0000000000
     12643       140  POPC      C310          -16.6384422481      -25.6511923918       -5.4901913745  MEMB      88              0.0000000000
     12644       140  POPC      H10X          -16.3278134333      -25.6544044182       -4.4240302830  MEMB      88              0.0000000000
     12645       140  POPC      H10Y          -16.6772923629      -26.6998476831       -5.8408509584  MEMB      88              0.0000000000
     12646       140  POPC      C311          -18.0551782733      -25.0687752695       -5.6376897674  MEMB      88              0.0000000000
     12647       140  POPC      H11X          -18.5125664812      -25.4510888314       -6.5769144887  MEMB      88              0.0000000000
     12648       140  POPC      H11Y          -18.0026801285      -23.9648392893       -5.7239030311  MEMB      88              0.0000000000
     12649       140  POPC      C312          -18.9417600574      -25.4062156241       -4.4334167959  MEMB      88              0.0000000000
     12650       140  POPC      H12X          -19.0620170498      -24.5026578510       -3.7952214113  MEMB      88              0.0000000000
     12651       140  POPC      H12Y          -18.3866876246      -26.1511194275       -3.8347634202  MEMB      88              0.0000000000
     12652       140  POPC      C313          -20.3180919610      -25.9829792993       -4.7979346338  MEMB      88              0.0000000000
     12653       140  POPC      H13X          -20.2038310818      -26.9283237188       -5.3701446355  MEMB      88              0.0000000000
     12654       140  POPC      H13Y          -20.8168326256      -25.2450913501       -5.4686746474  MEMB      88              0.0000000000
     12655       140  POPC      C314          -21.2553475694      -26.2034029330       -3.5931969314  MEMB      88              0.0000000000
     12656       140  POPC      H14X          -22.2915766622      -26.2841213974       -3.9971832909  MEMB      88              0.0000000000
     12657       140  POPC      H14Y          -21.2161649258      -25.2970535791       -2.9488521171  MEMB      88              0.0000000000
     12658       140  POPC      C315          -21.0089651664      -27.4464009856       -2.7134051688  MEMB      88              0.0000000000
     12659       140  POPC      H15X          -21.2334457326      -28.3669349995       -3.2976609914  MEMB      88              0.0000000000
     12660       140  POPC      H15Y          -21.7226460308      -27.4255011590       -1.8603634705  MEMB      88              0.0000000000
     12661       140  POPC      C316          -19.6178534484      -27.5566227510       -2.1029017970  MEMB      88              0.0000000000
     12662       140  POPC      H16X          -19.2793829585      -26.5644090111       -1.7333036159  MEMB      88              0.0000000000
     12663       140  POPC      H16Y          -18.8977819815      -27.9205010880       -2.8648802223  MEMB      88              0.0000000000
     12664       140  POPC      H16Z          -19.6085129803      -28.2621611615       -1.2500426132  MEMB      88              0.0000000000
     12665       141  POPC      N              13.2624317146      -31.5811595020      -19.2116489941  MEMB      89              0.0000000000
     12666       141  POPC      C12            14.4791804596      -31.3822633442      -20.1205283967  MEMB      89              0.0000000000
     12667       141  POPC      H12A           14.3999283583      -32.0784399344      -20.9547816703  MEMB      89              0.0000000000
     12668       141  POPC      H12B           15.3719962705      -31.7144736298      -19.5935412091  MEMB      89              0.0000000000
     12669       141  POPC      C13            11.9961206841      -31.4030409673      -19.9766963168  MEMB      89              0.0000000000
     12670       141  POPC      H13A           11.1451826968      -31.4335844829      -19.3066909849  MEMB      89              0.0000000000
     12671       141  POPC      H13B           11.9850871639      -30.4376344639      -20.4607723874  MEMB      89              0.0000000000
     12672       141  POPC      H13C           11.8837812312      -32.2037505558      -20.6970542573  MEMB      89              0.0000000000
     12673       141  POPC      C14            13.2468590973      -32.9933673477      -18.7030737282  MEMB      89              0.0000000000
     12674       141  POPC      H14A           13.1208967411      -33.7132804777      -19.5256406711  MEMB      89              0.0000000000
     12675       141  POPC      H14B           14.1477813257      -33.2860664751      -18.1878010404  MEMB      89              0.0000000000
     12676       141  POPC      H14C           12.3877470956      -33.1853967472      -18.0660843736  MEMB      89              0.0000000000
     12677       141  POPC      C15            13.2434109454      -30.5724104922      -18.1086653277  MEMB      89              0.0000000000
     12678       141  POPC      H15A           12.2737981956      -30.5375023350      -17.6314555701  MEMB      89              0.0000000000
     12679       141  POPC      H15B           13.4652214505      -29.5864834503      -18.5321403101  MEMB      89              0.0000000000
     12680       141  POPC      H15C           14.0302198360      -30.7428449790      -17.3868103472  MEMB      89              0.0000000000
     12681       141  POPC      C11            14.7825305871      -29.9589081030      -20.6840247246  MEMB      89              0.0000000000
     12682       141  POPC      H11A           13.9389454795      -29.6734560650      -21.3464014834  MEMB      89              0.0000000000
     12683       141  POPC      H11B           15.6809411333      -30.0356378991      -21.3492261568  MEMB      89              0.0000000000
     12684       141  POPC      P              16.3783758705      -28.4643795968      -19.2064217979  MEMB      89              0.0000000000
     12685       141  POPC      O13            16.2919828805      -27.7855491676      -17.9018599711  MEMB      89              0.0000000000
     12686       141  POPC      O14            17.0632002653      -27.7423330140      -20.3133412535  MEMB      89              0.0000000000
     12687       141  POPC      O12            14.9389636847      -28.9446488334      -19.6761416125  MEMB      89              0.0000000000
     12688       141  POPC      O11            17.0755751795      -29.8571430961      -18.9940758050  MEMB      89              0.0000000000
     12689       141  POPC      C1             18.4025289247      -30.1187074792      -19.4531844953  MEMB      89              0.0000000000
     12690       141  POPC      HA             18.9423541827      -29.2169465339      -19.8284653518  MEMB      89              0.0000000000
     12691       141  POPC      HB             18.3272335295      -30.8220065892      -20.3141375146  MEMB      89              0.0000000000
     12692       141  POPC      C2             19.2957570918      -30.7778319469      -18.3447494789  MEMB      89              0.0000000000
     12693       141  POPC      HS             20.1704749726      -31.1815728078      -18.8715156056  MEMB      89              0.0000000000
     12694       141  POPC      O21            18.6928006475      -31.8539359970      -17.6132944561  MEMB      89              0.0000000000
     12695       141  POPC      C21            17.6805723309      -32.4227890977      -18.2217321905  MEMB      89              0.0000000000
     12696       141  POPC      O22            17.7167948488      -32.9409103986      -19.3238662170  MEMB      89              0.0000000000
     12697       141  POPC      C22            16.4217899448      -32.2714459212      -17.3467545335  MEMB      89              0.0000000000
     12698       141  POPC      H2R            16.1074508341      -33.2773002153      -17.0300380378  MEMB      89              0.0000000000
     12699       141  POPC      H2S            15.6350764139      -31.8890229801      -18.0004146895  MEMB      89              0.0000000000
     12700       141  POPC      C3             19.8101492711      -29.7666134295      -17.2758472617  MEMB      89              0.0000000000
     12701       141  POPC      HX             20.5674701742      -29.1226940203      -17.7498565254  MEMB      89              0.0000000000
     12702       141  POPC      HY             20.3345050606      -30.3681173989      -16.4941210449  MEMB      89              0.0000000000
     12703       141  POPC      O31            18.7883046476      -28.8920871633      -16.7574723850  MEMB      89              0.0000000000
     12704       141  POPC      C31            18.5465960903      -28.9480175145      -15.4513551400  MEMB      89              0.0000000000
     12705       141  POPC      O32            19.0998008292      -29.6949495073      -14.6718232661  MEMB      89              0.0000000000
     12706       141  POPC      C32            17.5345233165      -27.8686762644      -15.0789510502  MEMB      89              0.0000000000
     12707       141  POPC      H2X            16.5849749510      -28.0853490438      -15.5911079929  MEMB      89              0.0000000000
     12708       141  POPC      H2Y            17.9140431824      -26.9645166474      -15.5560078068  MEMB      89              0.0000000000
     12709       141  POPC      C23            16.5098178338      -31.2557340482      -16.1692336632  MEMB      89              0.0000000000
     12710       141  POPC      H3R            16.5527419755      -30.2339929033      -16.6026982686  MEMB      89              0.0000000000
     12711       141  POPC      H3S            17.4277787198      -31.4187661671      -15.5628277478  MEMB      89              0.0000000000
     12712       141  POPC      C24            15.3083615348      -31.3584296587      -15.2337097093  MEMB      89              0.0000000000
     12713       141  POPC      H4R            15.5099319918      -32.2430539346      -14.6101866827  MEMB      89              0.0000000000
     12714       141  POPC      H4S            14.4061346461      -31.5158847718      -15.8461869172  MEMB      89              0.0000000000
     12715       141  POPC      C25            15.0094959857      -30.2239610710      -14.2642654328  MEMB      89              0.0000000000
     12716       141  POPC      H5R            13.9244419245      -29.9750466060      -14.3046672610  MEMB      89              0.0000000000
     12717       141  POPC      H5S            15.5193303816      -29.3113835376      -14.5812960411  MEMB      89              0.0000000000
     12718       141  POPC      C26            15.3690069866      -30.5436563000      -12.8063067029  MEMB      89              0.0000000000
     12719       141  POPC      H6R            14.5912929957      -31.1995145455      -12.3637655571  MEMB      89              0.0000000000
     12720       141  POPC      H6S            15.3512480589      -29.5962096203      -12.2291143036  MEMB      89              0.0000000000
     12721       141  POPC      C27            16.7466801532      -31.1650609625      -12.5446400382  MEMB      89              0.0000000000
     12722       141  POPC      H7R            17.5615011302      -30.5603841620      -12.9889027923  MEMB      89              0.0000000000
     12723       141  POPC      H7S            16.8331832038      -32.1720356021      -12.9894932591  MEMB      89              0.0000000000
     12724       141  POPC      C28            16.9130054333      -31.2360293536      -11.0262444533  MEMB      89              0.0000000000
     12725       141  POPC      H8R            16.1391629118      -31.9431500395      -10.6686775213  MEMB      89              0.0000000000
     12726       141  POPC      H8S            16.6053272296      -30.2542350315      -10.6085476643  MEMB      89              0.0000000000
     12727       141  POPC      C29            18.2834971903      -31.6348069215      -10.5539875093  MEMB      89              0.0000000000
     12728       141  POPC      H91            18.6784814032      -32.5633773829      -10.9962912815  MEMB      89              0.0000000000
     12729       141  POPC      C210           19.0635602933      -30.9160960816       -9.7264134592  MEMB      89              0.0000000000
     12730       141  POPC      H101           20.0432997980      -31.3245202257       -9.4327852478  MEMB      89              0.0000000000
     12731       141  POPC      C211           18.7137556786      -29.5756310014       -9.1244162965  MEMB      89              0.0000000000
     12732       141  POPC      H11R           17.9280427923      -29.0616355703       -9.7200926087  MEMB      89              0.0000000000
     12733       141  POPC      H11S           19.5933924975      -28.9039695323       -9.2196815916  MEMB      89              0.0000000000
     12734       141  POPC      C212           18.2390799765      -29.5823980353       -7.6552636063  MEMB      89              0.0000000000
     12735       141  POPC      H12R           17.8337006555      -30.5722089300       -7.3499316235  MEMB      89              0.0000000000
     12736       141  POPC      H12S           17.3918541690      -28.8623186708       -7.5762943311  MEMB      89              0.0000000000
     12737       141  POPC      C213           19.3390070163      -29.1241761141       -6.6874801465  MEMB      89              0.0000000000
     12738       141  POPC      H13R           19.9607712784      -28.3549813780       -7.2026752801  MEMB      89              0.0000000000
     12739       141  POPC      H13S           20.0049325882      -29.9801510437       -6.4453793514  MEMB      89              0.0000000000
     12740       141  POPC      C214           18.8155254901      -28.4572159220       -5.4069739232  MEMB      89              0.0000000000
     12741       141  POPC      H14R           18.2572909845      -27.5346709814       -5.6910790351  MEMB      89              0.0000000000
     12742       141  POPC      H14S           19.6884372812      -28.1337359209       -4.8003497302  MEMB      89              0.0000000000
     12743       141  POPC      C215           17.8868703205      -29.3175372735       -4.5386921743  MEMB      89              0.0000000000
     12744       141  POPC      H15R           16.9527620638      -29.5428925912       -5.0982441147  MEMB      89              0.0000000000
     12745       141  POPC      H15S           17.5863964589      -28.7090296996       -3.6591263202  MEMB      89              0.0000000000
     12746       141  POPC      C216           18.4924998818      -30.6350397003       -4.0269854120  MEMB      89              0.0000000000
     12747       141  POPC      H16R           19.4857039661      -30.4551041995       -3.5585867880  MEMB      89              0.0000000000
     12748       141  POPC      H16S           18.6507820897      -31.3033144936       -4.9039774771  MEMB      89              0.0000000000
     12749       141  POPC      C217           17.5457743230      -31.3263949114       -3.0280439506  MEMB      89              0.0000000000
     12750       141  POPC      H17R           17.4209302871      -32.3934483045       -3.2866120671  MEMB      89              0.0000000000
     12751       141  POPC      H17S           16.5311322184      -30.8904013484       -3.1438436560  MEMB      89              0.0000000000
     12752       141  POPC      C218           17.9556520565      -31.2383610065       -1.5566292687  MEMB      89              0.0000000000
     12753       141  POPC      H18R           17.1593608530      -31.6905171454       -0.9231986449  MEMB      89              0.0000000000
     12754       141  POPC      H18S           18.0919454879      -30.1785438042       -1.2637254596  MEMB      89              0.0000000000
     12755       141  POPC      H18T           18.9077506611      -31.7694249881       -1.3564982774  MEMB      89              0.0000000000
     12756       141  POPC      C33            17.3604787910      -27.6902480963      -13.5505154799  MEMB      89              0.0000000000
     12757       141  POPC      H3X            18.3448608485      -27.3408556110      -13.1562905226  MEMB      89              0.0000000000
     12758       141  POPC      H3Y            17.1554666563      -28.6439117055      -13.0501963038  MEMB      89              0.0000000000
     12759       141  POPC      C34            16.3086357712      -26.6728007439      -13.0683002794  MEMB      89              0.0000000000
     12760       141  POPC      H4X            16.6491167946      -25.7420833813      -13.5588282467  MEMB      89              0.0000000000
     12761       141  POPC      H4Y            16.4279629212      -26.5332322962      -11.9787007241  MEMB      89              0.0000000000
     12762       141  POPC      C35            14.8017325061      -26.7836862168      -13.4169307757  MEMB      89              0.0000000000
     12763       141  POPC      H5X            14.6676690938      -27.1582060332      -14.4548467268  MEMB      89              0.0000000000
     12764       141  POPC      H5Y            14.4309114505      -25.7302656238      -13.4410443587  MEMB      89              0.0000000000
     12765       141  POPC      C36            13.8130270551      -27.4947475481      -12.4519789158  MEMB      89              0.0000000000
     12766       141  POPC      H6X            13.6705051958      -28.5370123612      -12.7858379740  MEMB      89              0.0000000000
     12767       141  POPC      H6Y            12.8120743753      -27.0224531221      -12.5880889111  MEMB      89              0.0000000000
     12768       141  POPC      C37            14.1298363352      -27.5196147213      -10.9427787986  MEMB      89              0.0000000000
     12769       141  POPC      H7X            13.8458198247      -26.5457790417      -10.4923638959  MEMB      89              0.0000000000
     12770       141  POPC      H7Y            15.2170903947      -27.6664414743      -10.7711397000  MEMB      89              0.0000000000
     12771       141  POPC      C38            13.4154938388      -28.6814895389      -10.2178428659  MEMB      89              0.0000000000
     12772       141  POPC      H8X            13.8292118760      -29.6409131753      -10.6016856811  MEMB      89              0.0000000000
     12773       141  POPC      H8Y            12.3308492987      -28.6756709123      -10.4615644460  MEMB      89              0.0000000000
     12774       141  POPC      C39            13.6023550075      -28.6579606418       -8.6913714622  MEMB      89              0.0000000000
     12775       141  POPC      H9X            13.0177781296      -27.8147947687       -8.2623950195  MEMB      89              0.0000000000
     12776       141  POPC      H9Y            14.6794622322      -28.4769164589       -8.4684250026  MEMB      89              0.0000000000
     12777       141  POPC      C310           13.1916666035      -29.9778157916       -8.0159853662  MEMB      89              0.0000000000
     12778       141  POPC      H10X           13.8203667927      -30.7921024887       -8.4445954787  MEMB      89              0.0000000000
     12779       141  POPC      H10Y           12.1322042183      -30.2194910032       -8.2476956929  MEMB      89              0.0000000000
     12780       141  POPC      C311           13.3928630464      -29.9598936949       -6.4916745619  MEMB      89              0.0000000000
     12781       141  POPC      H11X           12.6064004714      -29.3358463586       -6.0134342085  MEMB      89              0.0000000000
     12782       141  POPC      H11Y           14.3771765929      -29.4852881134       -6.2728161990  MEMB      89              0.0000000000
     12783       141  POPC      C312           13.3993925871      -31.3723593765       -5.8822082484  MEMB      89              0.0000000000
     12784       141  POPC      H12X           14.1281870938      -31.9815556083       -6.4672162513  MEMB      89              0.0000000000
     12785       141  POPC      H12Y           12.4012474265      -31.8488073228       -5.9880917518  MEMB      89              0.0000000000
     12786       141  POPC      C313           13.8540399042      -31.4107476318       -4.4130959190  MEMB      89              0.0000000000
     12787       141  POPC      H13X           14.7711441758      -30.7881634315       -4.3247303200  MEMB      89              0.0000000000
     12788       141  POPC      H13Y           14.1241588922      -32.4595845989       -4.1517017505  MEMB      89              0.0000000000
     12789       141  POPC      C314           12.8145916625      -30.9095069952       -3.3987884882  MEMB      89              0.0000000000
     12790       141  POPC      H14X           11.9722042930      -31.6352411330       -3.3418537220  MEMB      89              0.0000000000
     12791       141  POPC      H14Y           12.4045217201      -29.9387200629       -3.7548236605  MEMB      89              0.0000000000
     12792       141  POPC      C315           13.4042478118      -30.6916656948       -1.9925232205  MEMB      89              0.0000000000
     12793       141  POPC      H15X           12.6151192886      -30.2406228657       -1.3480372760  MEMB      89              0.0000000000
     12794       141  POPC      H15Y           14.2369953847      -29.9551448667       -2.0610851197  MEMB      89              0.0000000000
     12795       141  POPC      C316           13.9228975228      -31.9605714652       -1.3150266210  MEMB      89              0.0000000000
     12796       141  POPC      H16X           14.2855626968      -31.7395959952       -0.2876166471  MEMB      89              0.0000000000
     12797       141  POPC      H16Y           14.7568728426      -32.4171693435       -1.8888758243  MEMB      89              0.0000000000
     12798       141  POPC      H16Z           13.0992512204      -32.6984338146       -1.2432211875  MEMB      89              0.0000000000
     12799       142  POPC      N             -22.3708974747       27.2512892836      -20.2582936842  MEMB      90              0.0000000000
     12800       142  POPC      C12           -22.8417792465       25.8165902110      -20.0910611855  MEMB      90              0.0000000000
     12801       142  POPC      H12A          -23.6424944799       25.6486551734      -20.7986673092  MEMB      90              0.0000000000
     12802       142  POPC      H12B          -23.2763262960       25.6618760544      -19.1009835172  MEMB      90              0.0000000000
     12803       142  POPC      C13           -21.8589269857       27.3736401784      -21.6549315929  MEMB      90              0.0000000000
     12804       142  POPC      H13A          -22.6537497128       27.2394415111      -22.3732898116  MEMB      90              0.0000000000
     12805       142  POPC      H13B          -21.3787030441       28.3246552733      -21.8294513741  MEMB      90              0.0000000000
     12806       142  POPC      H13C          -21.1176659377       26.5996826392      -21.8407699998  MEMB      90              0.0000000000
     12807       142  POPC      C14           -23.4972030530       28.2090816361      -20.0444823737  MEMB      90              0.0000000000
     12808       142  POPC      H14A          -24.2653403827       28.0589801193      -20.7956567251  MEMB      90              0.0000000000
     12809       142  POPC      H14B          -23.9552006763       28.0696941944      -19.0677082773  MEMB      90              0.0000000000
     12810       142  POPC      H14C          -23.1524105588       29.2305869885      -20.1267437897  MEMB      90              0.0000000000
     12811       142  POPC      C15           -21.2582297623       27.5086039553      -19.2896694126  MEMB      90              0.0000000000
     12812       142  POPC      H15A          -21.6211691334       27.5311088307      -18.2707938551  MEMB      90              0.0000000000
     12813       142  POPC      H15B          -20.6986046237       28.3962238278      -19.5348769194  MEMB      90              0.0000000000
     12814       142  POPC      H15C          -20.5776932691       26.6499458747      -19.3011569662  MEMB      90              0.0000000000
     12815       142  POPC      C11           -21.7584176702       24.7261243055      -20.3213651061  MEMB      90              0.0000000000
     12816       142  POPC      H11A          -21.1619596072       24.9428852312      -21.2332631097  MEMB      90              0.0000000000
     12817       142  POPC      H11B          -22.2865962992       23.7728878296      -20.5564538696  MEMB      90              0.0000000000
     12818       142  POPC      P             -21.1342548951       23.4587823715      -18.1266136377  MEMB      90              0.0000000000
     12819       142  POPC      O13           -20.1562367317       23.5275530601      -17.0230733781  MEMB      90              0.0000000000
     12820       142  POPC      O14           -21.2770069618       22.1538960554      -18.8558734229  MEMB      90              0.0000000000
     12821       142  POPC      O12           -20.8550367596       24.6146448590      -19.2103709615  MEMB      90              0.0000000000
     12822       142  POPC      O11           -22.5663312127       23.9043769075      -17.5947290100  MEMB      90              0.0000000000
     12823       142  POPC      C1            -23.0243404786       23.2721405084      -16.3915654371  MEMB      90              0.0000000000
     12824       142  POPC      HA            -22.2164170285       23.2085669794      -15.6178205860  MEMB      90              0.0000000000
     12825       142  POPC      HB            -23.3619881072       22.2343295609      -16.6190527917  MEMB      90              0.0000000000
     12826       142  POPC      C2            -24.2243574437       24.0062340553      -15.7144520141  MEMB      90              0.0000000000
     12827       142  POPC      HS            -25.0960182640       23.9699815618      -16.4096942474  MEMB      90              0.0000000000
     12828       142  POPC      O21           -23.9013204371       25.3722268669      -15.3637149582  MEMB      90              0.0000000000
     12829       142  POPC      C21           -23.9202899818       26.2088804880      -16.3823072937  MEMB      90              0.0000000000
     12830       142  POPC      O22           -24.3309114105       25.9929675741      -17.5094587372  MEMB      90              0.0000000000
     12831       142  POPC      C22           -23.3314868153       27.5740942094      -16.0077097420  MEMB      90              0.0000000000
     12832       142  POPC      H2R           -23.8020490816       28.2766758440      -16.7236039820  MEMB      90              0.0000000000
     12833       142  POPC      H2S           -22.2526309587       27.5423310133      -16.2315953787  MEMB      90              0.0000000000
     12834       142  POPC      C3            -24.6146070793       23.2169118675      -14.4313723649  MEMB      90              0.0000000000
     12835       142  POPC      HX            -24.9082405648       22.1916491989      -14.7526530180  MEMB      90              0.0000000000
     12836       142  POPC      HY            -25.5144015882       23.6876737329      -13.9743881776  MEMB      90              0.0000000000
     12837       142  POPC      O31           -23.4842206516       23.1037513058      -13.5309051111  MEMB      90              0.0000000000
     12838       142  POPC      C31           -23.4528394936       23.9760519749      -12.5383707817  MEMB      90              0.0000000000
     12839       142  POPC      O32           -24.3768496546       24.7004783026      -12.2085209990  MEMB      90              0.0000000000
     12840       142  POPC      C32           -22.1294593253       23.8835768551      -11.7691976821  MEMB      90              0.0000000000
     12841       142  POPC      H2X           -21.4288348151       24.6088530994      -12.2332717376  MEMB      90              0.0000000000
     12842       142  POPC      H2Y           -21.7235982339       22.8601269041      -11.8923023148  MEMB      90              0.0000000000
     12843       142  POPC      C23           -23.6059409569       28.0827380037      -14.5726159272  MEMB      90              0.0000000000
     12844       142  POPC      H3R           -24.6016635050       27.7381377169      -14.2137327992  MEMB      90              0.0000000000
     12845       142  POPC      H3S           -23.6340398915       29.1983251737      -14.5805809152  MEMB      90              0.0000000000
     12846       142  POPC      C24           -22.5189441129       27.6977706381      -13.5640755158  MEMB      90              0.0000000000
     12847       142  POPC      H4R           -22.5155747644       26.5968003595      -13.4182822877  MEMB      90              0.0000000000
     12848       142  POPC      H4S           -22.8165474805       28.1588887351      -12.5964338551  MEMB      90              0.0000000000
     12849       142  POPC      C25           -21.1094645018       28.1647394082      -13.9713645547  MEMB      90              0.0000000000
     12850       142  POPC      H5R           -21.1635380800       29.2304992065      -14.2909569172  MEMB      90              0.0000000000
     12851       142  POPC      H5S           -20.7401201306       27.5657018937      -14.8316487339  MEMB      90              0.0000000000
     12852       142  POPC      C26           -20.0900482158       28.0621228217      -12.8329692420  MEMB      90              0.0000000000
     12853       142  POPC      H6R           -19.1145988671       28.4589656186      -13.2014794599  MEMB      90              0.0000000000
     12854       142  POPC      H6S           -19.9414188937       27.0014758324      -12.5365530583  MEMB      90              0.0000000000
     12855       142  POPC      C27           -20.5561896753       28.8917918602      -11.6313119270  MEMB      90              0.0000000000
     12856       142  POPC      H7R           -21.3395335466       28.3495070296      -11.0598964513  MEMB      90              0.0000000000
     12857       142  POPC      H7S           -21.0394455537       29.8112637791      -12.0473419981  MEMB      90              0.0000000000
     12858       142  POPC      C28           -19.4314877259       29.3657913956      -10.7026598815  MEMB      90              0.0000000000
     12859       142  POPC      H8R           -19.7361941710       30.3939563106      -10.4130254020  MEMB      90              0.0000000000
     12860       142  POPC      H8S           -18.4904470543       29.4695600661      -11.2872074254  MEMB      90              0.0000000000
     12861       142  POPC      C29           -19.1956162866       28.5330140490       -9.4723034360  MEMB      90              0.0000000000
     12862       142  POPC      H91           -18.7074120657       27.5642839074       -9.6548309077  MEMB      90              0.0000000000
     12863       142  POPC      C210          -19.5630725291       28.8644347633       -8.2199335952  MEMB      90              0.0000000000
     12864       142  POPC      H101          -19.3364579078       28.1625135951       -7.4035350805  MEMB      90              0.0000000000
     12865       142  POPC      C211          -20.2842094342       30.1201009997       -7.7798638072  MEMB      90              0.0000000000
     12866       142  POPC      H11R          -20.1192277906       30.9695047835       -8.4801247262  MEMB      90              0.0000000000
     12867       142  POPC      H11S          -19.8977867942       30.4608184872       -6.7937847433  MEMB      90              0.0000000000
     12868       142  POPC      C212          -21.8043853278       29.8829037499       -7.6811259051  MEMB      90              0.0000000000
     12869       142  POPC      H12R          -22.1904515173       29.6367737536       -8.6980245032  MEMB      90              0.0000000000
     12870       142  POPC      H12S          -22.3152958048       30.8174017496       -7.3583646231  MEMB      90              0.0000000000
     12871       142  POPC      C213          -22.1942805121       28.7493760980       -6.7201747087  MEMB      90              0.0000000000
     12872       142  POPC      H13R          -21.5196373355       27.8812888749       -6.8540291188  MEMB      90              0.0000000000
     12873       142  POPC      H13S          -23.1995158748       28.3821366616       -7.0084432357  MEMB      90              0.0000000000
     12874       142  POPC      C214          -22.1944106213       29.1850822924       -5.2477261168  MEMB      90              0.0000000000
     12875       142  POPC      H14R          -23.0297259209       29.9030765179       -5.0871919537  MEMB      90              0.0000000000
     12876       142  POPC      H14S          -21.2537214070       29.7346856146       -5.0251483312  MEMB      90              0.0000000000
     12877       142  POPC      C215          -22.3443761864       28.0106352268       -4.2671428812  MEMB      90              0.0000000000
     12878       142  POPC      H15R          -23.2768658462       27.4496926445       -4.4998467013  MEMB      90              0.0000000000
     12879       142  POPC      H15S          -22.4495809437       28.4226867988       -3.2361620832  MEMB      90              0.0000000000
     12880       142  POPC      C216          -21.1647596045       27.0250460335       -4.2660602462  MEMB      90              0.0000000000
     12881       142  POPC      H16R          -21.1162313893       26.4659597253       -5.2242008512  MEMB      90              0.0000000000
     12882       142  POPC      H16S          -21.3487568460       26.2750330464       -3.4634797992  MEMB      90              0.0000000000
     12883       142  POPC      C217          -19.8086778811       27.6978982698       -4.0238846252  MEMB      90              0.0000000000
     12884       142  POPC      H17R          -19.9233534111       28.4312409311       -3.1948929393  MEMB      90              0.0000000000
     12885       142  POPC      H17S          -19.5038335844       28.2687982523       -4.9302416567  MEMB      90              0.0000000000
     12886       142  POPC      C218          -18.7122388970       26.6996990074       -3.6604906407  MEMB      90              0.0000000000
     12887       142  POPC      H18R          -17.8034528664       27.2222356981       -3.2926786989  MEMB      90              0.0000000000
     12888       142  POPC      H18S          -18.4435783446       26.0761084494       -4.5391715423  MEMB      90              0.0000000000
     12889       142  POPC      H18T          -19.0758354417       26.0236335981       -2.8547816552  MEMB      90              0.0000000000
     12890       142  POPC      C33           -22.3575623817       24.2276781122      -10.2751993975  MEMB      90              0.0000000000
     12891       142  POPC      H3X           -23.1162843387       23.5357989344       -9.8406575065  MEMB      90              0.0000000000
     12892       142  POPC      H3Y           -22.7755433819       25.2616670734      -10.2154457655  MEMB      90              0.0000000000
     12893       142  POPC      C34           -21.1050363655       24.1805109742       -9.3875230420  MEMB      90              0.0000000000
     12894       142  POPC      H4X           -20.2281135771       24.5524461295       -9.9659969441  MEMB      90              0.0000000000
     12895       142  POPC      H4Y           -20.8963366158       23.1245762006       -9.1073353017  MEMB      90              0.0000000000
     12896       142  POPC      C35           -21.2505819743       25.0504022654       -8.1213310957  MEMB      90              0.0000000000
     12897       142  POPC      H5X           -21.2151146546       26.1193442286       -8.4392283033  MEMB      90              0.0000000000
     12898       142  POPC      H5Y           -20.3772560229       24.8824473772       -7.4520788189  MEMB      90              0.0000000000
     12899       142  POPC      C36           -22.5520428408       24.8485540208       -7.3141295975  MEMB      90              0.0000000000
     12900       142  POPC      H6X           -23.4395161189       25.0324876269       -7.9582137265  MEMB      90              0.0000000000
     12901       142  POPC      H6Y           -22.5849614748       25.6286088658       -6.5225315178  MEMB      90              0.0000000000
     12902       142  POPC      C37           -22.6726165797       23.4589376438       -6.6622771634  MEMB      90              0.0000000000
     12903       142  POPC      H7X           -21.7022367373       22.9351705556       -6.7988493363  MEMB      90              0.0000000000
     12904       142  POPC      H7Y           -23.4303743691       22.8657548906       -7.2208398917  MEMB      90              0.0000000000
     12905       142  POPC      C38           -23.0420672876       23.4660910715       -5.1601809553  MEMB      90              0.0000000000
     12906       142  POPC      H8X           -24.0323301587       22.9726274748       -5.0408774132  MEMB      90              0.0000000000
     12907       142  POPC      H8Y           -23.1648127000       24.5085624520       -4.7949395931  MEMB      90              0.0000000000
     12908       142  POPC      C39           -22.0098054103       22.7497423894       -4.2633256369  MEMB      90              0.0000000000
     12909       142  POPC      H9X           -21.4314176579       23.4985066421       -3.6793184799  MEMB      90              0.0000000000
     12910       142  POPC      H9Y           -21.2772737057       22.2219489592       -4.9131220563  MEMB      90              0.0000000000
     12911       142  POPC      C310          -22.5874674364       21.6753043075       -3.3214590740  MEMB      90              0.0000000000
     12912       142  POPC      H10X          -21.7430853012       21.1453230521       -2.8240791802  MEMB      90              0.0000000000
     12913       142  POPC      H10Y          -23.1360804264       20.9254696757       -3.9250328042  MEMB      90              0.0000000000
     12914       142  POPC      C311          -23.5802482422       22.1320284873       -2.2477291600  MEMB      90              0.0000000000
     12915       142  POPC      H11X          -23.9361442561       21.2038708736       -1.7467887693  MEMB      90              0.0000000000
     12916       142  POPC      H11Y          -24.4646063526       22.6244840176       -2.7040482989  MEMB      90              0.0000000000
     12917       142  POPC      C312          -22.9833208012       23.0148185830       -1.1603036260  MEMB      90              0.0000000000
     12918       142  POPC      H12X          -21.9037905910       22.7768074276       -1.0505074957  MEMB      90              0.0000000000
     12919       142  POPC      H12Y          -23.4808086653       22.7853266825       -0.1880018843  MEMB      90              0.0000000000
     12920       142  POPC      C313          -23.1910645765       24.4973582370       -1.4599601671  MEMB      90              0.0000000000
     12921       142  POPC      H13X          -24.2441863732       24.7705597757       -1.2253719389  MEMB      90              0.0000000000
     12922       142  POPC      H13Y          -23.0411242889       24.6776849412       -2.5470075773  MEMB      90              0.0000000000
     12923       142  POPC      C314          -22.2114841189       25.4001092860       -0.7109775883  MEMB      90              0.0000000000
     12924       142  POPC      H14X          -22.5689459891       26.4475150317       -0.8127297116  MEMB      90              0.0000000000
     12925       142  POPC      H14Y          -21.2178156544       25.3355951201       -1.2073083150  MEMB      90              0.0000000000
     12926       142  POPC      C315          -22.0262543986       25.0679403567        0.7721186099  MEMB      90              0.0000000000
     12927       142  POPC      H15X          -21.6662194983       24.0222007890        0.9018048224  MEMB      90              0.0000000000
     12928       142  POPC      H15Y          -23.0132590732       25.1359751221        1.2804707285  MEMB      90              0.0000000000
     12929       142  POPC      C316          -21.0324039746       26.0165693050        1.4412106255  MEMB      90              0.0000000000
     12930       142  POPC      H16X          -20.9793763617       26.9654011710        0.8715215363  MEMB      90              0.0000000000
     12931       142  POPC      H16Y          -20.0135012190       25.5746378673        1.4757565095  MEMB      90              0.0000000000
     12932       142  POPC      H16Z          -21.3532446195       26.2684313404        2.4733634387  MEMB      90              0.0000000000
     12933       143  POPC      N              26.0664926613      -19.4045652588      -19.5377446860  MEMB      91              0.0000000000
     12934       143  POPC      C12            26.3888287433      -20.5801694432      -20.4561583900  MEMB      91              0.0000000000
     12935       143  POPC      H12A           26.1588463305      -20.3108397326      -21.4846655782  MEMB      91              0.0000000000
     12936       143  POPC      H12B           25.7363570350      -21.4209423756      -20.2199762922  MEMB      91              0.0000000000
     12937       143  POPC      C13            27.2409304499      -18.4693764273      -19.4785278464  MEMB      91              0.0000000000
     12938       143  POPC      H13A           28.1037829249      -19.0459368944      -19.1345395497  MEMB      91              0.0000000000
     12939       143  POPC      H13B           27.5023278738      -18.0674921866      -20.4460621281  MEMB      91              0.0000000000
     12940       143  POPC      H13C           27.0939392794      -17.6425690248      -18.7945106151  MEMB      91              0.0000000000
     12941       143  POPC      C14            24.8965732131      -18.6665796977      -20.0689314092  MEMB      91              0.0000000000
     12942       143  POPC      H14A           24.0614269836      -19.3365770575      -20.2047486421  MEMB      91              0.0000000000
     12943       143  POPC      H14B           24.6647624718      -17.8361026608      -19.4175902542  MEMB      91              0.0000000000
     12944       143  POPC      H14C           25.1561686890      -18.2685209114      -21.0491442637  MEMB      91              0.0000000000
     12945       143  POPC      C15            25.8239058262      -19.9465498835      -18.1591071245  MEMB      91              0.0000000000
     12946       143  POPC      H15A           25.1117596315      -20.7584852772      -18.1566949588  MEMB      91              0.0000000000
     12947       143  POPC      H15B           25.5247223879      -19.1851122319      -17.4584183711  MEMB      91              0.0000000000
     12948       143  POPC      H15C           26.7666859373      -20.3772583618      -17.8005724016  MEMB      91              0.0000000000
     12949       143  POPC      C11            27.8305280933      -21.1444247507      -20.4047161099  MEMB      91              0.0000000000
     12950       143  POPC      H11A           28.5085818860      -20.5305535506      -21.0395547746  MEMB      91              0.0000000000
     12951       143  POPC      H11B           27.7486495397      -22.1587934117      -20.8738788322  MEMB      91              0.0000000000
     12952       143  POPC      P              29.3625444377      -22.3535241527      -18.7148231101  MEMB      91              0.0000000000
     12953       143  POPC      O13            30.5183083313      -22.2179510312      -19.6318305488  MEMB      91              0.0000000000
     12954       143  POPC      O14            28.6070931213      -23.6219596895      -18.7903435735  MEMB      91              0.0000000000
     12955       143  POPC      O12            28.3446827976      -21.1959028064      -19.0610963989  MEMB      91              0.0000000000
     12956       143  POPC      O11            29.7739360415      -21.9685891477      -17.2217302463  MEMB      91              0.0000000000
     12957       143  POPC      C1             28.8649722079      -22.3236552584      -16.1761428716  MEMB      91              0.0000000000
     12958       143  POPC      HA             28.3165129864      -23.2739054622      -16.3917722757  MEMB      91              0.0000000000
     12959       143  POPC      HB             28.1031654699      -21.5234312948      -16.0625903129  MEMB      91              0.0000000000
     12960       143  POPC      C2             29.5977152028      -22.5902864357      -14.8286538144  MEMB      91              0.0000000000
     12961       143  POPC      HS             28.8789987248      -23.1540104297      -14.1856353631  MEMB      91              0.0000000000
     12962       143  POPC      O21            29.9930718406      -21.3740205065      -14.1707522759  MEMB      91              0.0000000000
     12963       143  POPC      C21            28.9958496769      -20.7140672878      -13.6312898356  MEMB      91              0.0000000000
     12964       143  POPC      O22            27.8109132197      -20.9834294848      -13.7327293020  MEMB      91              0.0000000000
     12965       143  POPC      C22            29.5465651044      -19.5722708664      -12.7905512040  MEMB      91              0.0000000000
     12966       143  POPC      H2R            28.6414197889      -19.0079090183      -12.4849331292  MEMB      91              0.0000000000
     12967       143  POPC      H2S            30.1691256429      -18.9284008445      -13.4328608554  MEMB      91              0.0000000000
     12968       143  POPC      C3             30.8698465045      -23.4761189160      -14.9584546719  MEMB      91              0.0000000000
     12969       143  POPC      HX             31.5300981383      -22.9868727895      -15.7085340040  MEMB      91              0.0000000000
     12970       143  POPC      HY             30.6086937365      -24.4817977500      -15.3582813957  MEMB      91              0.0000000000
     12971       143  POPC      O31            31.5757549466      -23.5474757297      -13.6919724939  MEMB      91              0.0000000000
     12972       143  POPC      C31            30.9432132454      -24.2811518025      -12.7804066098  MEMB      91              0.0000000000
     12973       143  POPC      O32            30.0666725178      -25.1002541690      -13.0107995548  MEMB      91              0.0000000000
     12974       143  POPC      C32            31.4489687221      -23.9034225611      -11.3878606938  MEMB      91              0.0000000000
     12975       143  POPC      H2X            31.5044624117      -22.8020522822      -11.3194499475  MEMB      91              0.0000000000
     12976       143  POPC      H2Y            32.4706642192      -24.3186353404      -11.2793750802  MEMB      91              0.0000000000
     12977       143  POPC      C23            30.3216674505      -20.0124466696      -11.5268407048  MEMB      91              0.0000000000
     12978       143  POPC      H3R            29.9365683795      -20.9933534060      -11.1851400835  MEMB      91              0.0000000000
     12979       143  POPC      H3S            30.1069561563      -19.2725168186      -10.7241531277  MEMB      91              0.0000000000
     12980       143  POPC      C24            31.8516402072      -20.0845817113      -11.6713989495  MEMB      91              0.0000000000
     12981       143  POPC      H4R            32.2404880381      -19.1324953049      -12.0966223587  MEMB      91              0.0000000000
     12982       143  POPC      H4S            32.1065280631      -20.9023841313      -12.3812861038  MEMB      91              0.0000000000
     12983       143  POPC      C25            32.5455887129      -20.3173015089      -10.3129825537  MEMB      91              0.0000000000
     12984       143  POPC      H5R            31.9432406776      -21.0298724175       -9.7096686350  MEMB      91              0.0000000000
     12985       143  POPC      H5S            32.5760971573      -19.3533057673       -9.7589517456  MEMB      91              0.0000000000
     12986       143  POPC      C26            33.9678740213      -20.8836154075      -10.4260668686  MEMB      91              0.0000000000
     12987       143  POPC      H6R            34.5105965191      -20.3201107130      -11.2193845734  MEMB      91              0.0000000000
     12988       143  POPC      H6S            33.8998710076      -21.9433138686      -10.7582257490  MEMB      91              0.0000000000
     12989       143  POPC      C27            34.8014114306      -20.8029204087       -9.1246230029  MEMB      91              0.0000000000
     12990       143  POPC      H7R            35.0615564114      -19.7336547291       -8.9431743128  MEMB      91              0.0000000000
     12991       143  POPC      H7S            35.7619802616      -21.3392905166       -9.2853937266  MEMB      91              0.0000000000
     12992       143  POPC      C28            34.1413364563      -21.3474307963       -7.8376505153  MEMB      91              0.0000000000
     12993       143  POPC      H8R            33.2757651574      -20.6983351695       -7.5808630281  MEMB      91              0.0000000000
     12994       143  POPC      H8S            34.8900015288      -21.2247924048       -7.0187617847  MEMB      91              0.0000000000
     12995       143  POPC      C29            33.7176098398      -22.7920283312       -7.9229124169  MEMB      91              0.0000000000
     12996       143  POPC      H91            34.0152289044      -23.3333370277       -8.8349864184  MEMB      91              0.0000000000
     12997       143  POPC      C210           32.9995606187      -23.4395504829       -6.9875429066  MEMB      91              0.0000000000
     12998       143  POPC      H101           32.7474640706      -24.4987957941       -7.1480753260  MEMB      91              0.0000000000
     12999       143  POPC      C211           32.4834263954      -22.8671947850       -5.6903221041  MEMB      91              0.0000000000
     13000       143  POPC      H11R           32.9360083036      -21.8779212957       -5.4552080587  MEMB      91              0.0000000000
     13001       143  POPC      H11S           32.7682156994      -23.5500023501       -4.8611624224  MEMB      91              0.0000000000
     13002       143  POPC      C212           30.9493812935      -22.7127867898       -5.7226823632  MEMB      91              0.0000000000
     13003       143  POPC      H12R           30.4794517032      -23.6875701554       -5.9863958205  MEMB      91              0.0000000000
     13004       143  POPC      H12S           30.6835573301      -21.9812425932       -6.5213045906  MEMB      91              0.0000000000
     13005       143  POPC      C213           30.3422575431      -22.2288222181       -4.3940304935  MEMB      91              0.0000000000
     13006       143  POPC      H13R           29.2532645938      -22.0457088421       -4.5408082866  MEMB      91              0.0000000000
     13007       143  POPC      H13S           30.8079969258      -21.2650159953       -4.0996121481  MEMB      91              0.0000000000
     13008       143  POPC      C214           30.5200058663      -23.2213220108       -3.2405062707  MEMB      91              0.0000000000
     13009       143  POPC      H14R           31.6032411756      -23.4062420536       -3.0745083038  MEMB      91              0.0000000000
     13010       143  POPC      H14S           30.0424511936      -24.1855933112       -3.5195374460  MEMB      91              0.0000000000
     13011       143  POPC      C215           29.9110223395      -22.7401186222       -1.9163569456  MEMB      91              0.0000000000
     13012       143  POPC      H15R           29.8782805303      -23.5999450939       -1.2170508356  MEMB      91              0.0000000000
     13013       143  POPC      H15S           28.8738132967      -22.3925390497       -2.1004200192  MEMB      91              0.0000000000
     13014       143  POPC      C216           30.7323262987      -21.6326952305       -1.2545523371  MEMB      91              0.0000000000
     13015       143  POPC      H16R           31.3964697338      -21.2019965804       -2.0309820117  MEMB      91              0.0000000000
     13016       143  POPC      H16S           31.3805936630      -22.0595861673       -0.4574342896  MEMB      91              0.0000000000
     13017       143  POPC      C217           29.9176364182      -20.4599945039       -0.7139470046  MEMB      91              0.0000000000
     13018       143  POPC      H17R           29.3951078197      -20.7559998392        0.2224519070  MEMB      91              0.0000000000
     13019       143  POPC      H17S           29.1431510337      -20.1786924328       -1.4632188277  MEMB      91              0.0000000000
     13020       143  POPC      C218           30.8264741997      -19.2602922202       -0.4605561535  MEMB      91              0.0000000000
     13021       143  POPC      H18R           31.3836898052      -18.9982128737       -1.3832297714  MEMB      91              0.0000000000
     13022       143  POPC      H18S           31.5691652387      -19.5000125636        0.3308679818  MEMB      91              0.0000000000
     13023       143  POPC      H18T           30.2452431899      -18.3675987411       -0.1554313875  MEMB      91              0.0000000000
     13024       143  POPC      C33            30.5514925249      -24.4506098894      -10.2523050828  MEMB      91              0.0000000000
     13025       143  POPC      H3X            31.0866456572      -24.3670048769       -9.2803259844  MEMB      91              0.0000000000
     13026       143  POPC      H3Y            30.3504464537      -25.5275112715      -10.4397079350  MEMB      91              0.0000000000
     13027       143  POPC      C34            29.1915360246      -23.7636420671      -10.1327296855  MEMB      91              0.0000000000
     13028       143  POPC      H4X            28.4446397458      -24.5157075222       -9.7857978860  MEMB      91              0.0000000000
     13029       143  POPC      H4Y            28.8589748283      -23.4180489810      -11.1375364824  MEMB      91              0.0000000000
     13030       143  POPC      C35            29.1484404528      -22.6006016933       -9.1382958525  MEMB      91              0.0000000000
     13031       143  POPC      H5X            29.9680593764      -21.8839931035       -9.3415341865  MEMB      91              0.0000000000
     13032       143  POPC      H5Y            29.2876688203      -22.9737597280       -8.0989557635  MEMB      91              0.0000000000
     13033       143  POPC      C36            27.7919845943      -21.9104272665       -9.2664542716  MEMB      91              0.0000000000
     13034       143  POPC      H6X            27.0537510380      -22.5291428400       -8.7085507929  MEMB      91              0.0000000000
     13035       143  POPC      H6Y            27.4791741125      -21.8996655175      -10.3369583821  MEMB      91              0.0000000000
     13036       143  POPC      C37            27.7230798935      -20.4706364695       -8.7642860209  MEMB      91              0.0000000000
     13037       143  POPC      H7X            28.2823893577      -19.7976581514       -9.4460057396  MEMB      91              0.0000000000
     13038       143  POPC      H7Y            28.2272284416      -20.4201044200       -7.7770013235  MEMB      91              0.0000000000
     13039       143  POPC      C38            26.2464017730      -20.0429225702       -8.6904111958  MEMB      91              0.0000000000
     13040       143  POPC      H8X            25.6973313978      -20.7769114778       -8.0567444028  MEMB      91              0.0000000000
     13041       143  POPC      H8Y            25.8055382175      -20.1088949261       -9.7119400443  MEMB      91              0.0000000000
     13042       143  POPC      C39            25.9879038131      -18.6415459326       -8.1237777930  MEMB      91              0.0000000000
     13043       143  POPC      H9X            24.8915535389      -18.5135722029       -7.9778465745  MEMB      91              0.0000000000
     13044       143  POPC      H9Y            26.3169473674      -17.8854390402       -8.8747251400  MEMB      91              0.0000000000
     13045       143  POPC      C310           26.7076112301      -18.3466741542       -6.8017638371  MEMB      91              0.0000000000
     13046       143  POPC      H10X           26.3117516581      -17.4096372089       -6.3521075474  MEMB      91              0.0000000000
     13047       143  POPC      H10Y           27.7747195289      -18.1538065361       -7.0657054655  MEMB      91              0.0000000000
     13048       143  POPC      C311           26.7028504272      -19.4685779718       -5.7502164472  MEMB      91              0.0000000000
     13049       143  POPC      H11X           27.4862038833      -19.2033890183       -5.0039895019  MEMB      91              0.0000000000
     13050       143  POPC      H11Y           27.0209084395      -20.4440211241       -6.1706515929  MEMB      91              0.0000000000
     13051       143  POPC      C312           25.4054161740      -19.7111249593       -4.9689131441  MEMB      91              0.0000000000
     13052       143  POPC      H12X           24.7195522951      -20.3365100012       -5.5810437912  MEMB      91              0.0000000000
     13053       143  POPC      H12Y           24.8965083558      -18.7507996076       -4.7357478394  MEMB      91              0.0000000000
     13054       143  POPC      C313           25.8008918823      -20.4226213014       -3.6691039021  MEMB      91              0.0000000000
     13055       143  POPC      H13X           26.0905512504      -19.6588827503       -2.9133606147  MEMB      91              0.0000000000
     13056       143  POPC      H13Y           26.7238471874      -21.0064120890       -3.8953430015  MEMB      91              0.0000000000
     13057       143  POPC      C314           24.8031294310      -21.4082769239       -3.0558056764  MEMB      91              0.0000000000
     13058       143  POPC      H14X           24.4024212443      -22.1045573028       -3.8213616277  MEMB      91              0.0000000000
     13059       143  POPC      H14Y           23.9398186677      -20.8449305893       -2.6412533425  MEMB      91              0.0000000000
     13060       143  POPC      C315           25.5110783870      -22.1978998341       -1.9417976590  MEMB      91              0.0000000000
     13061       143  POPC      H15X           24.7752605732      -22.5718762477       -1.2002793039  MEMB      91              0.0000000000
     13062       143  POPC      H15Y           26.1785536098      -21.4910781779       -1.3953750415  MEMB      91              0.0000000000
     13063       143  POPC      C316           26.3509904517      -23.3721756863       -2.4542444827  MEMB      91              0.0000000000
     13064       143  POPC      H16X           25.7114672829      -24.2476871214       -2.6913692279  MEMB      91              0.0000000000
     13065       143  POPC      H16Y           27.0957934790      -23.6819118708       -1.6967443456  MEMB      91              0.0000000000
     13066       143  POPC      H16Z           26.9077493126      -23.0971880258       -3.3743502194  MEMB      91              0.0000000000
     13067       144  POPC      N              22.9678953840      -30.9364139513      -20.0155655055  MEMB      92              0.0000000000
     13068       144  POPC      C12            22.4379273650      -29.6509482534      -19.3978951451  MEMB      92              0.0000000000
     13069       144  POPC      H12A           22.4951948848      -29.7727648170      -18.3196043429  MEMB      92              0.0000000000
     13070       144  POPC      H12B           21.4111994026      -29.4912184304      -19.6832336058  MEMB      92              0.0000000000
     13071       144  POPC      C13            24.4062843196      -31.0505232137      -19.6493217169  MEMB      92              0.0000000000
     13072       144  POPC      H13A           24.6056248116      -30.8803932047      -18.5974609058  MEMB      92              0.0000000000
     13073       144  POPC      H13B           24.8757430636      -31.9615124038      -20.0008083739  MEMB      92              0.0000000000
     13074       144  POPC      H13C           24.9626693798      -30.2338027672      -20.1249122617  MEMB      92              0.0000000000
     13075       144  POPC      C14            22.2932852299      -32.1668460960      -19.4947072135  MEMB      92              0.0000000000
     13076       144  POPC      H14A           22.1218311133      -32.1271010852      -18.4202411726  MEMB      92              0.0000000000
     13077       144  POPC      H14B           21.3308476633      -32.3192057936      -19.9766402778  MEMB      92              0.0000000000
     13078       144  POPC      H14C           22.9159140715      -33.0485537060      -19.6474946217  MEMB      92              0.0000000000
     13079       144  POPC      C15            22.8901204460      -30.7980459029      -21.5105596390  MEMB      92              0.0000000000
     13080       144  POPC      H15A           21.8939772450      -30.9577712041      -21.9163721761  MEMB      92              0.0000000000
     13081       144  POPC      H15B           23.6067577685      -31.4278379450      -22.0263476002  MEMB      92              0.0000000000
     13082       144  POPC      H15C           23.1876221181      -29.7859965304      -21.7896501604  MEMB      92              0.0000000000
     13083       144  POPC      C11            23.2432320963      -28.3523059144      -19.6298265129  MEMB      92              0.0000000000
     13084       144  POPC      H11A           22.6344913778      -27.4773783707      -19.3007160415  MEMB      92              0.0000000000
     13085       144  POPC      H11B           23.5223185894      -28.1914294425      -20.6907215281  MEMB      92              0.0000000000
     13086       144  POPC      P              25.7991755133      -27.8768752605      -18.7755866914  MEMB      92              0.0000000000
     13087       144  POPC      O13            25.9557579046      -26.7521918512      -19.7274684722  MEMB      92              0.0000000000
     13088       144  POPC      O14            26.7365594421      -29.0176369753      -18.9408913271  MEMB      92              0.0000000000
     13089       144  POPC      O12            24.3576472309      -28.4843010642      -18.7980232552  MEMB      92              0.0000000000
     13090       144  POPC      O11            25.7496069795      -27.3052579926      -17.2907891730  MEMB      92              0.0000000000
     13091       144  POPC      C1             24.4558753558      -26.8441221558      -16.8232934856  MEMB      92              0.0000000000
     13092       144  POPC      HA             23.8363767499      -27.7071725658      -16.4928779508  MEMB      92              0.0000000000
     13093       144  POPC      HB             23.8805684367      -26.3292475964      -17.6347513283  MEMB      92              0.0000000000
     13094       144  POPC      C2             24.5378001523      -25.7988567167      -15.6679905595  MEMB      92              0.0000000000
     13095       144  POPC      HS             25.2481481967      -25.0130965044      -16.0144729390  MEMB      92              0.0000000000
     13096       144  POPC      O21            25.0126594136      -26.4218350294      -14.4516248858  MEMB      92              0.0000000000
     13097       144  POPC      C21            25.4256025387      -25.5365263316      -13.5450511491  MEMB      92              0.0000000000
     13098       144  POPC      O22            25.4995504512      -24.3308272930      -13.7208799177  MEMB      92              0.0000000000
     13099       144  POPC      C22            25.8750258962      -26.2633402199      -12.2876575215  MEMB      92              0.0000000000
     13100       144  POPC      H2R            26.8812289365      -26.6836415076      -12.4947737757  MEMB      92              0.0000000000
     13101       144  POPC      H2S            25.1728237121      -27.0933371842      -12.0719158551  MEMB      92              0.0000000000
     13102       144  POPC      C3             23.1347475835      -25.1387332212      -15.4374826543  MEMB      92              0.0000000000
     13103       144  POPC      HX             22.8489979988      -24.6109865724      -16.3745525203  MEMB      92              0.0000000000
     13104       144  POPC      HY             23.1908603600      -24.3603328386      -14.6432162494  MEMB      92              0.0000000000
     13105       144  POPC      O31            22.1460859067      -26.1578471920      -15.1658806958  MEMB      92              0.0000000000
     13106       144  POPC      C31            22.1000527014      -26.5406996975      -13.8881770420  MEMB      92              0.0000000000
     13107       144  POPC      O32            22.2675444984      -25.8259644907      -12.9197913907  MEMB      92              0.0000000000
     13108       144  POPC      C32            21.9383448443      -28.0633418394      -13.8650956139  MEMB      92              0.0000000000
     13109       144  POPC      H2X            22.9074902297      -28.4791732211      -14.2093132147  MEMB      92              0.0000000000
     13110       144  POPC      H2Y            21.1722201199      -28.3230876446      -14.6213250796  MEMB      92              0.0000000000
     13111       144  POPC      C23            25.9395727926      -25.2777463250      -11.1065611641  MEMB      92              0.0000000000
     13112       144  POPC      H3R            26.5566918697      -24.3884845308      -11.3772179145  MEMB      92              0.0000000000
     13113       144  POPC      H3S            26.4408180940      -25.7840869285      -10.2522943849  MEMB      92              0.0000000000
     13114       144  POPC      C24            24.5416957750      -24.8050932726      -10.6767328024  MEMB      92              0.0000000000
     13115       144  POPC      H4R            23.9100567441      -25.6915947836      -10.4441641952  MEMB      92              0.0000000000
     13116       144  POPC      H4S            24.0550195042      -24.2607169131      -11.5185075173  MEMB      92              0.0000000000
     13117       144  POPC      C25            24.5680433536      -23.8699829195       -9.4641714249  MEMB      92              0.0000000000
     13118       144  POPC      H5R            23.5316418637      -23.5188546039       -9.2611995108  MEMB      92              0.0000000000
     13119       144  POPC      H5S            25.1796354288      -22.9734049858       -9.7000829210  MEMB      92              0.0000000000
     13120       144  POPC      C26            25.1070856840      -24.5675312553       -8.2132800948  MEMB      92              0.0000000000
     13121       144  POPC      H6R            26.1923950131      -24.7812773225       -8.3263069146  MEMB      92              0.0000000000
     13122       144  POPC      H6S            24.5815107152      -25.5461167759       -8.1296741904  MEMB      92              0.0000000000
     13123       144  POPC      C27            24.8909154913      -23.7458649417       -6.9378865450  MEMB      92              0.0000000000
     13124       144  POPC      H7R            23.8130784205      -23.4919630505       -6.8385331151  MEMB      92              0.0000000000
     13125       144  POPC      H7S            25.4530974425      -22.7887084257       -7.0243433674  MEMB      92              0.0000000000
     13126       144  POPC      C28            25.3695734222      -24.4746363142       -5.6757771769  MEMB      92              0.0000000000
     13127       144  POPC      H8R            25.1531744335      -23.8252312801       -4.8059613719  MEMB      92              0.0000000000
     13128       144  POPC      H8S            26.4765595900      -24.5810064292       -5.7314325088  MEMB      92              0.0000000000
     13129       144  POPC      C29            24.6816077999      -25.7993968111       -5.4921914381  MEMB      92              0.0000000000
     13130       144  POPC      H91            23.6188436763      -25.7420974764       -5.2117813173  MEMB      92              0.0000000000
     13131       144  POPC      C210           25.2517237197      -27.0073833548       -5.6270561527  MEMB      92              0.0000000000
     13132       144  POPC      H101           24.6459825879      -27.8947851039       -5.4061465837  MEMB      92              0.0000000000
     13133       144  POPC      C211           26.6890420759      -27.2920942824       -5.9856896415  MEMB      92              0.0000000000
     13134       144  POPC      H11R           27.0627409070      -26.5787754742       -6.7548427640  MEMB      92              0.0000000000
     13135       144  POPC      H11S           26.7776197692      -28.3091586494       -6.4250995189  MEMB      92              0.0000000000
     13136       144  POPC      C212           27.5968935099      -27.2183696453       -4.7432091789  MEMB      92              0.0000000000
     13137       144  POPC      H12R           27.5730286844      -26.1841290724       -4.3362605424  MEMB      92              0.0000000000
     13138       144  POPC      H12S           28.6384303626      -27.4177881704       -5.0590536878  MEMB      92              0.0000000000
     13139       144  POPC      C213           27.2047094258      -28.2255227124       -3.6465732629  MEMB      92              0.0000000000
     13140       144  POPC      H13R           27.3637842597      -29.2575055088       -4.0294295025  MEMB      92              0.0000000000
     13141       144  POPC      H13S           26.1210163248      -28.1138283934       -3.4323210395  MEMB      92              0.0000000000
     13142       144  POPC      C214           27.9526241323      -28.0572595833       -2.3142748673  MEMB      92              0.0000000000
     13143       144  POPC      H14R           29.0327141998      -28.2112713697       -2.4900483958  MEMB      92              0.0000000000
     13144       144  POPC      H14S           27.6126883490      -28.8564040120       -1.6190083273  MEMB      92              0.0000000000
     13145       144  POPC      C215           27.7066340939      -26.6902662985       -1.6590418466  MEMB      92              0.0000000000
     13146       144  POPC      H15R           26.6484701932      -26.3981165937       -1.8366092459  MEMB      92              0.0000000000
     13147       144  POPC      H15S           28.3472439433      -25.9232968750       -2.1479166115  MEMB      92              0.0000000000
     13148       144  POPC      C216           27.9268970287      -26.6528248737       -0.1402495864  MEMB      92              0.0000000000
     13149       144  POPC      H16R           28.9306057911      -27.0592285589        0.1133930053  MEMB      92              0.0000000000
     13150       144  POPC      H16S           27.1571688046      -27.2902965762        0.3439825768  MEMB      92              0.0000000000
     13151       144  POPC      C217           27.8035726077      -25.2166051480        0.3813985433  MEMB      92              0.0000000000
     13152       144  POPC      H17R           26.8035102334      -24.8163382907        0.1001134762  MEMB      92              0.0000000000
     13153       144  POPC      H17S           28.5683650360      -24.6094458847       -0.1397994450  MEMB      92              0.0000000000
     13154       144  POPC      C218           27.9973430075      -25.0218863081        1.8779723441  MEMB      92              0.0000000000
     13155       144  POPC      H18R           28.1251704103      -23.9470306642        2.1090164944  MEMB      92              0.0000000000
     13156       144  POPC      H18S           28.8986021555      -25.5587552668        2.2430750787  MEMB      92              0.0000000000
     13157       144  POPC      H18T           27.0987642579      -25.3711626735        2.4258289481  MEMB      92              0.0000000000
     13158       144  POPC      C33            21.5781259253      -28.7283505263      -12.5083820374  MEMB      92              0.0000000000
     13159       144  POPC      H3X            20.9352220589      -29.6082593605      -12.7571255856  MEMB      92              0.0000000000
     13160       144  POPC      H3Y            20.9648655363      -28.0667885549      -11.8610296984  MEMB      92              0.0000000000
     13161       144  POPC      C34            22.7947954117      -29.2839997381      -11.7378898046  MEMB      92              0.0000000000
     13162       144  POPC      H4X            23.3447903662      -28.4452729746      -11.2621197946  MEMB      92              0.0000000000
     13163       144  POPC      H4Y            23.4829171475      -29.7754542153      -12.4628698045  MEMB      92              0.0000000000
     13164       144  POPC      C35            22.3938542779      -30.3337407959      -10.6804528767  MEMB      92              0.0000000000
     13165       144  POPC      H5X            21.8463091222      -31.1525492873      -11.2044241138  MEMB      92              0.0000000000
     13166       144  POPC      H5Y            21.6846442813      -29.8664641209       -9.9653887980  MEMB      92              0.0000000000
     13167       144  POPC      C36            23.5549258568      -30.9683089331       -9.8881183829  MEMB      92              0.0000000000
     13168       144  POPC      H6X            24.2978363631      -31.3905043348      -10.6012128679  MEMB      92              0.0000000000
     13169       144  POPC      H6Y            23.1406238470      -31.8189680528       -9.3001901546  MEMB      92              0.0000000000
     13170       144  POPC      C37            24.2622742703      -30.0080650270       -8.9157276629  MEMB      92              0.0000000000
     13171       144  POPC      H7X            23.5118300233      -29.4793838807       -8.2895804249  MEMB      92              0.0000000000
     13172       144  POPC      H7Y            24.7909178004      -29.2401453191       -9.5253904263  MEMB      92              0.0000000000
     13173       144  POPC      C38            25.2990349701      -30.7020887138       -8.0098680878  MEMB      92              0.0000000000
     13174       144  POPC      H8X            26.0160432268      -29.9439826147       -7.6276634960  MEMB      92              0.0000000000
     13175       144  POPC      H8Y            25.8828004335      -31.4113807193       -8.6383780054  MEMB      92              0.0000000000
     13176       144  POPC      C39            24.7094800202      -31.4646292327       -6.8038547299  MEMB      92              0.0000000000
     13177       144  POPC      H9X            25.4579768255      -32.2203686801       -6.4692859454  MEMB      92              0.0000000000
     13178       144  POPC      H9Y            23.7975887626      -32.0139621820       -7.1187398878  MEMB      92              0.0000000000
     13179       144  POPC      C310           24.3935309204      -30.5699053070       -5.5908024302  MEMB      92              0.0000000000
     13180       144  POPC      H10X           23.8223214570      -29.6803950200       -5.9316914299  MEMB      92              0.0000000000
     13181       144  POPC      H10Y           25.3586833188      -30.2153302855       -5.1600455103  MEMB      92              0.0000000000
     13182       144  POPC      C311           23.5792655530      -31.2789718579       -4.4915941192  MEMB      92              0.0000000000
     13183       144  POPC      H11X           23.7875098309      -32.3712418894       -4.5523635421  MEMB      92              0.0000000000
     13184       144  POPC      H11Y           22.4954136838      -31.1278812529       -4.6915746000  MEMB      92              0.0000000000
     13185       144  POPC      C312           23.9072278924      -30.8116484946       -3.0593824809  MEMB      92              0.0000000000
     13186       144  POPC      H12X           25.0114807632      -30.8314520136       -2.9196970496  MEMB      92              0.0000000000
     13187       144  POPC      H12Y           23.4686217828      -31.5317744540       -2.3308333748  MEMB      92              0.0000000000
     13188       144  POPC      C313           23.3703861812      -29.4101104466       -2.7288849800  MEMB      92              0.0000000000
     13189       144  POPC      H13X           22.2749467626      -29.4831457059       -2.5561026447  MEMB      92              0.0000000000
     13190       144  POPC      H13Y           23.5337153354      -28.7475467324       -3.6050420289  MEMB      92              0.0000000000
     13191       144  POPC      C314           24.0398945139      -28.7835132891       -1.4944487987  MEMB      92              0.0000000000
     13192       144  POPC      H14X           25.1348055434      -28.7148856922       -1.6698286034  MEMB      92              0.0000000000
     13193       144  POPC      H14Y           23.8972063412      -29.4636115456       -0.6297984388  MEMB      92              0.0000000000
     13194       144  POPC      C315           23.5392814886      -27.3745449483       -1.1278369743  MEMB      92              0.0000000000
     13195       144  POPC      H15X           24.1272429889      -27.0144582825       -0.2519373511  MEMB      92              0.0000000000
     13196       144  POPC      H15Y           22.4807200006      -27.4334709543       -0.8004262850  MEMB      92              0.0000000000
     13197       144  POPC      C316           23.6585589643      -26.3453391501       -2.2542563434  MEMB      92              0.0000000000
     13198       144  POPC      H16X           23.4179423638      -25.3271621386       -1.8868364211  MEMB      92              0.0000000000
     13199       144  POPC      H16Y           22.9631519996      -26.5853320392       -3.0853626175  MEMB      92              0.0000000000
     13200       144  POPC      H16Z           24.6902057785      -26.3329921216       -2.6607491306  MEMB      92              0.0000000000
     13201       145  POPC      N              29.1315513755       24.5942965124      -21.1321210474  MEMB      93              0.0000000000
     13202       145  POPC      C12            29.0342433948       25.4346508955      -19.8563207122  MEMB      93              0.0000000000
     13203       145  POPC      H12A           28.0733102769       25.2381231774      -19.3980250746  MEMB      93              0.0000000000
     13204       145  POPC      H12B           29.0614446177       26.4792928636      -20.1412380870  MEMB      93              0.0000000000
     13205       145  POPC      C13            28.7710414905       23.1666458513      -20.8305395655  MEMB      93              0.0000000000
     13206       145  POPC      H13A           29.1802557003       22.5219086566      -21.6082997157  MEMB      93              0.0000000000
     13207       145  POPC      H13B           29.2963968919       22.8583671774      -19.9113965908  MEMB      93              0.0000000000
     13208       145  POPC      H13C           27.7183825976       23.0114618725      -20.7312847921  MEMB      93              0.0000000000
     13209       145  POPC      C14            28.2956395004       25.1682223450      -22.2207566010  MEMB      93              0.0000000000
     13210       145  POPC      H14A           28.4214056044       24.6271931646      -23.1539479815  MEMB      93              0.0000000000
     13211       145  POPC      H14B           27.2371715772       25.1775784557      -21.9977065747  MEMB      93              0.0000000000
     13212       145  POPC      H14C           28.6128591888       26.1931997388      -22.4171940843  MEMB      93              0.0000000000
     13213       145  POPC      C15            30.5357280427       24.5270871143      -21.6226840538  MEMB      93              0.0000000000
     13214       145  POPC      H15A           30.5965099443       23.9390484431      -22.5332489074  MEMB      93              0.0000000000
     13215       145  POPC      H15B           31.1346872555       24.0526343261      -20.8492674413  MEMB      93              0.0000000000
     13216       145  POPC      H15C           30.9271911165       25.5153160548      -21.8163088186  MEMB      93              0.0000000000
     13217       145  POPC      C11            30.0907994809       25.2251899122      -18.7358379388  MEMB      93              0.0000000000
     13218       145  POPC      H11A           29.7057920462       25.6426353745      -17.7723514563  MEMB      93              0.0000000000
     13219       145  POPC      H11B           31.0102310222       25.7960761454      -18.9803573228  MEMB      93              0.0000000000
     13220       145  POPC      P              30.2931825227       22.9753980012      -17.3438726957  MEMB      93              0.0000000000
     13221       145  POPC      O13            31.3777995058       23.3245444849      -16.4017369604  MEMB      93              0.0000000000
     13222       145  POPC      O14            30.1409814351       21.5733002628      -17.7835676657  MEMB      93              0.0000000000
     13223       145  POPC      O12            30.4417085164       23.8616530884      -18.6345251272  MEMB      93              0.0000000000
     13224       145  POPC      O11            28.9328165912       23.5092139280      -16.7247742093  MEMB      93              0.0000000000
     13225       145  POPC      C1             27.6515040505       23.0011584152      -17.0769912351  MEMB      93              0.0000000000
     13226       145  POPC      HA             27.7090279371       22.0888208618      -17.7167904648  MEMB      93              0.0000000000
     13227       145  POPC      HB             27.1251558636       23.7862573654      -17.6618377406  MEMB      93              0.0000000000
     13228       145  POPC      C2             26.7621004261       22.6763989505      -15.8271320219  MEMB      93              0.0000000000
     13229       145  POPC      HS             25.7085438741       22.6148353097      -16.1869364242  MEMB      93              0.0000000000
     13230       145  POPC      O21            26.8878087548       23.6750877584      -14.7867480707  MEMB      93              0.0000000000
     13231       145  POPC      C21            26.3336863644       24.8285949654      -15.0799942847  MEMB      93              0.0000000000
     13232       145  POPC      O22            25.6398009854       25.0520244114      -16.0588062085  MEMB      93              0.0000000000
     13233       145  POPC      C22            26.6256056686       25.8930380377      -14.0200466420  MEMB      93              0.0000000000
     13234       145  POPC      H2R            25.8297891834       26.6605635646      -14.1266051698  MEMB      93              0.0000000000
     13235       145  POPC      H2S            27.5995035558       26.3581934602      -14.2729284038  MEMB      93              0.0000000000
     13236       145  POPC      C3             27.0761509940       21.2719509215      -15.2126268522  MEMB      93              0.0000000000
     13237       145  POPC      HX             27.1672839210       20.5400528975      -16.0440581314  MEMB      93              0.0000000000
     13238       145  POPC      HY             26.1988956492       20.9460194745      -14.6069430317  MEMB      93              0.0000000000
     13239       145  POPC      O31            28.3024726153       21.2508993105      -14.4581865951  MEMB      93              0.0000000000
     13240       145  POPC      C31            28.1573830416       21.6851300616      -13.2077663125  MEMB      93              0.0000000000
     13241       145  POPC      O32            27.0974870926       21.7976648021      -12.6161139326  MEMB      93              0.0000000000
     13242       145  POPC      C32            29.5535377640       21.9116559591      -12.6407164704  MEMB      93              0.0000000000
     13243       145  POPC      H2X            30.2045990414       22.2760805041      -13.4658400059  MEMB      93              0.0000000000
     13244       145  POPC      H2Y            29.9367736957       20.9262535769      -12.3014665908  MEMB      93              0.0000000000
     13245       145  POPC      C23            26.6461497888       25.3889352561      -12.5592357535  MEMB      93              0.0000000000
     13246       145  POPC      H3R            27.5195928232       24.7148940925      -12.4409751414  MEMB      93              0.0000000000
     13247       145  POPC      H3S            25.7440837208       24.7802596661      -12.3340495402  MEMB      93              0.0000000000
     13248       145  POPC      C24            26.7601196026       26.5529469922      -11.5586552863  MEMB      93              0.0000000000
     13249       145  POPC      H4R            25.7669412211       27.0232413361      -11.3953391416  MEMB      93              0.0000000000
     13250       145  POPC      H4S            27.4162638224       27.3237500449      -12.0273918631  MEMB      93              0.0000000000
     13251       145  POPC      C25            27.4056622325       26.1753044684      -10.2141109956  MEMB      93              0.0000000000
     13252       145  POPC      H5R            27.9445554273       27.0654978115       -9.8127262096  MEMB      93              0.0000000000
     13253       145  POPC      H5S            28.1692747264       25.3846162191      -10.3861791035  MEMB      93              0.0000000000
     13254       145  POPC      C26            26.4317689772       25.7037867446       -9.1199417495  MEMB      93              0.0000000000
     13255       145  POPC      H6R            25.7858456701       26.5435303576       -8.7848360549  MEMB      93              0.0000000000
     13256       145  POPC      H6S            27.0521961753       25.3917907078       -8.2475907127  MEMB      93              0.0000000000
     13257       145  POPC      C27            25.5508338678       24.5202548553       -9.5383926878  MEMB      93              0.0000000000
     13258       145  POPC      H7R            26.1998696807       23.8017664436      -10.0925252743  MEMB      93              0.0000000000
     13259       145  POPC      H7S            24.7624902281       24.8684272794      -10.2401918736  MEMB      93              0.0000000000
     13260       145  POPC      C28            24.9012301727       23.8051106407       -8.3387397861  MEMB      93              0.0000000000
     13261       145  POPC      H8R            24.0662059223       24.4333973658       -7.9540687914  MEMB      93              0.0000000000
     13262       145  POPC      H8S            25.6417298673       23.7553060263       -7.5135524822  MEMB      93              0.0000000000
     13263       145  POPC      C29            24.4163228055       22.4206091267       -8.7096956201  MEMB      93              0.0000000000
     13264       145  POPC      H91            23.3215993315       22.3464043972       -8.7972237022  MEMB      93              0.0000000000
     13265       145  POPC      C210           25.1405250134       21.3053062268       -8.9647938398  MEMB      93              0.0000000000
     13266       145  POPC      H101           24.5694494010       20.3893809818       -9.1784155582  MEMB      93              0.0000000000
     13267       145  POPC      C211           26.6445695414       21.0813171890       -8.9575428804  MEMB      93              0.0000000000
     13268       145  POPC      H11R           27.0650699101       21.2072671568       -9.9813308384  MEMB      93              0.0000000000
     13269       145  POPC      H11S           26.8453065047       20.0238977804       -8.6684144284  MEMB      93              0.0000000000
     13270       145  POPC      C212           27.4378435029       21.9611279720       -7.9763899181  MEMB      93              0.0000000000
     13271       145  POPC      H12R           26.8199375850       22.0541528487       -7.0527829831  MEMB      93              0.0000000000
     13272       145  POPC      H12S           27.5752084834       22.9817638903       -8.3940608391  MEMB      93              0.0000000000
     13273       145  POPC      C213           28.8041006036       21.4423329216       -7.5067583166  MEMB      93              0.0000000000
     13274       145  POPC      H13R           29.5708916832       21.5808367797       -8.2902128835  MEMB      93              0.0000000000
     13275       145  POPC      H13S           28.7606336605       20.3509786508       -7.3208652257  MEMB      93              0.0000000000
     13276       145  POPC      C214           29.1539608786       22.1817406347       -6.2026150280  MEMB      93              0.0000000000
     13277       145  POPC      H14R           28.2934306897       22.0574587308       -5.5062593835  MEMB      93              0.0000000000
     13278       145  POPC      H14S           29.2150537407       23.2709522089       -6.4095822849  MEMB      93              0.0000000000
     13279       145  POPC      C215           30.4056023465       21.7021319641       -5.4627635779  MEMB      93              0.0000000000
     13280       145  POPC      H15R           31.3065766893       22.1416356969       -5.9438129117  MEMB      93              0.0000000000
     13281       145  POPC      H15S           30.4943563549       20.5964017150       -5.5488152055  MEMB      93              0.0000000000
     13282       145  POPC      C216           30.3562435448       22.0830134270       -3.9698090080  MEMB      93              0.0000000000
     13283       145  POPC      H16R           29.9984317396       23.1301888733       -3.8520760716  MEMB      93              0.0000000000
     13284       145  POPC      H16S           31.3819094139       22.0593947158       -3.5559855236  MEMB      93              0.0000000000
     13285       145  POPC      C217           29.4617596907       21.1343506603       -3.1522131830  MEMB      93              0.0000000000
     13286       145  POPC      H17R           29.4912554988       20.1263305000       -3.6216400302  MEMB      93              0.0000000000
     13287       145  POPC      H17S           28.4122528904       21.4996964034       -3.2210041103  MEMB      93              0.0000000000
     13288       145  POPC      C218           29.8524229867       20.9721056454       -1.6817515193  MEMB      93              0.0000000000
     13289       145  POPC      H18R           30.7561338881       20.3342091538       -1.5857777847  MEMB      93              0.0000000000
     13290       145  POPC      H18S           29.0342345006       20.4744034592       -1.1180326938  MEMB      93              0.0000000000
     13291       145  POPC      H18T           30.0524237420       21.9592313973       -1.2125671351  MEMB      93              0.0000000000
     13292       145  POPC      C33            29.5787251218       22.9115648977      -11.4686019156  MEMB      93              0.0000000000
     13293       145  POPC      H3X            28.8207230240       22.6300234876      -10.7020290841  MEMB      93              0.0000000000
     13294       145  POPC      H3Y            29.3320142438       23.9325844859      -11.8345314548  MEMB      93              0.0000000000
     13295       145  POPC      C34            30.9585541575       22.9606832370      -10.8067418370  MEMB      93              0.0000000000
     13296       145  POPC      H4X            31.6832569706       23.3650532518      -11.5504882390  MEMB      93              0.0000000000
     13297       145  POPC      H4Y            31.2801053120       21.9310388015      -10.5386304777  MEMB      93              0.0000000000
     13298       145  POPC      C35            30.9846900398       23.8286083622       -9.5474736008  MEMB      93              0.0000000000
     13299       145  POPC      H5X            30.5922307391       23.2501349908       -8.6901133687  MEMB      93              0.0000000000
     13300       145  POPC      H5Y            30.3075582430       24.6987172287       -9.6908664109  MEMB      93              0.0000000000
     13301       145  POPC      C36            32.3921097936       24.3439698396       -9.2225612582  MEMB      93              0.0000000000
     13302       145  POPC      H6X            32.6153069015       25.1751210125       -9.9282538974  MEMB      93              0.0000000000
     13303       145  POPC      H6Y            33.1365935611       23.5459849317       -9.4350925305  MEMB      93              0.0000000000
     13304       145  POPC      C37            32.6077851062       24.8246921539       -7.7726253993  MEMB      93              0.0000000000
     13305       145  POPC      H7X            33.2670089884       25.7183208928       -7.8139069270  MEMB      93              0.0000000000
     13306       145  POPC      H7Y            33.1839925437       24.0520837269       -7.2165950357  MEMB      93              0.0000000000
     13307       145  POPC      C38            31.3383157345       25.1675508633       -6.9687664260  MEMB      93              0.0000000000
     13308       145  POPC      H8X            31.0421764635       24.2575897758       -6.4098530799  MEMB      93              0.0000000000
     13309       145  POPC      H8Y            30.4941561853       25.4566435551       -7.6278961194  MEMB      93              0.0000000000
     13310       145  POPC      C39            31.5516061621       26.3098188799       -5.9707355701  MEMB      93              0.0000000000
     13311       145  POPC      H9X            31.6306696500       27.2707664836       -6.5197029648  MEMB      93              0.0000000000
     13312       145  POPC      H9Y            32.5216967493       26.1242241399       -5.4554524102  MEMB      93              0.0000000000
     13313       145  POPC      C310           30.4982691073       26.4261614219       -4.8625753926  MEMB      93              0.0000000000
     13314       145  POPC      H10X           30.7296903202       27.3274556808       -4.2498708025  MEMB      93              0.0000000000
     13315       145  POPC      H10Y           30.6392954206       25.5385053244       -4.2013490705  MEMB      93              0.0000000000
     13316       145  POPC      C311           29.0080058335       26.4807326712       -5.2496108760  MEMB      93              0.0000000000
     13317       145  POPC      H11X           28.7419814992       25.6377067374       -5.9238843756  MEMB      93              0.0000000000
     13318       145  POPC      H11Y           28.7525077210       27.4359387929       -5.7557120451  MEMB      93              0.0000000000
     13319       145  POPC      C312           28.2430529207       26.3337745618       -3.9324868594  MEMB      93              0.0000000000
     13320       145  POPC      H12X           28.5014784832       27.1942506705       -3.2729493003  MEMB      93              0.0000000000
     13321       145  POPC      H12Y           28.6479874756       25.4044249224       -3.4680089784  MEMB      93              0.0000000000
     13322       145  POPC      C313           26.7213181859       26.1992866511       -3.9536049245  MEMB      93              0.0000000000
     13323       145  POPC      H13X           26.4263137810       25.2596924506       -4.4721079015  MEMB      93              0.0000000000
     13324       145  POPC      H13Y           26.2597227243       27.0536328482       -4.4973067999  MEMB      93              0.0000000000
     13325       145  POPC      C314           26.1905185214       26.1900394076       -2.5062315024  MEMB      93              0.0000000000
     13326       145  POPC      H14X           25.1012404020       25.9941074114       -2.5545428877  MEMB      93              0.0000000000
     13327       145  POPC      H14Y           26.3183400475       27.2112713021       -2.0807548988  MEMB      93              0.0000000000
     13328       145  POPC      C315           26.9170236896       25.2061445143       -1.5594150653  MEMB      93              0.0000000000
     13329       145  POPC      H15X           28.0107396210       25.4069116295       -1.5720931220  MEMB      93              0.0000000000
     13330       145  POPC      H15Y           26.7668528575       24.1641186355       -1.9196797680  MEMB      93              0.0000000000
     13331       145  POPC      C316           26.5376452131       25.3215349774       -0.0839887780  MEMB      93              0.0000000000
     13332       145  POPC      H16X           25.4823098268       25.0952593045        0.0843758254  MEMB      93              0.0000000000
     13333       145  POPC      H16Y           26.7019788408       26.3529529592        0.2844819264  MEMB      93              0.0000000000
     13334       145  POPC      H16Z           27.1187507690       24.6096330931        0.5393450431  MEMB      93              0.0000000000
     13335       146  POPC      N             -29.9580235662      -29.8324693524      -19.9081972501  MEMB      94              0.0000000000
     13336       146  POPC      C12           -29.1074204711      -29.9998970311      -18.6652904085  MEMB      94              0.0000000000
     13337       146  POPC      H12A          -28.4258248045      -30.8293551141      -18.7939830044  MEMB      94              0.0000000000
     13338       146  POPC      H12B          -29.7541000104      -30.2315172793      -17.8293009787  MEMB      94              0.0000000000
     13339       146  POPC      C13           -29.0906740446      -29.7002597593      -21.1121125540  MEMB      94              0.0000000000
     13340       146  POPC      H13A          -28.4152888286      -28.8542507154      -20.9731443367  MEMB      94              0.0000000000
     13341       146  POPC      H13B          -28.4810517144      -30.5797361039      -21.2545468402  MEMB      94              0.0000000000
     13342       146  POPC      H13C          -29.6842710162      -29.5029849808      -21.9861383175  MEMB      94              0.0000000000
     13343       146  POPC      C14           -30.8852568747      -30.9753920537      -20.1119843998  MEMB      94              0.0000000000
     13344       146  POPC      H14A          -31.5131807803      -30.7799569666      -20.9844407548  MEMB      94              0.0000000000
     13345       146  POPC      H14B          -30.3119957762      -31.8779411766      -20.3051866610  MEMB      94              0.0000000000
     13346       146  POPC      H14C          -31.5708070377      -31.0846609866      -19.2804109630  MEMB      94              0.0000000000
     13347       146  POPC      C15           -30.7711860305      -28.5821672440      -19.7939423295  MEMB      94              0.0000000000
     13348       146  POPC      H15A          -31.4547716647      -28.6015486961      -18.9461315780  MEMB      94              0.0000000000
     13349       146  POPC      H15B          -31.4091674532      -28.4411402967      -20.6637522291  MEMB      94              0.0000000000
     13350       146  POPC      H15C          -30.1323943195      -27.7072066329      -19.7206600951  MEMB      94              0.0000000000
     13351       146  POPC      C11           -28.2674337564      -28.7759918022      -18.2351499122  MEMB      94              0.0000000000
     13352       146  POPC      H11A          -27.7363264320      -29.0519899292      -17.3036647747  MEMB      94              0.0000000000
     13353       146  POPC      H11B          -28.9737190805      -27.9517647138      -17.9676877081  MEMB      94              0.0000000000
     13354       146  POPC      P             -26.6418582679      -26.9525003394      -18.9905433623  MEMB      94              0.0000000000
     13355       146  POPC      O13           -27.7579313305      -25.9929165330      -18.8750991395  MEMB      94              0.0000000000
     13356       146  POPC      O14           -25.6466425575      -26.7616929981      -20.0800574121  MEMB      94              0.0000000000
     13357       146  POPC      O12           -27.3237123859      -28.3779253648      -19.2402319854  MEMB      94              0.0000000000
     13358       146  POPC      O11           -25.8856975155      -27.2971365599      -17.6058714685  MEMB      94              0.0000000000
     13359       146  POPC      C1            -24.7855416552      -28.2350945032      -17.7083723489  MEMB      94              0.0000000000
     13360       146  POPC      HA            -23.9123202367      -27.7530135720      -18.2029565678  MEMB      94              0.0000000000
     13361       146  POPC      HB            -25.0761250883      -29.1168898199      -18.3343630363  MEMB      94              0.0000000000
     13362       146  POPC      C2            -24.2892471433      -28.8890794301      -16.3661487431  MEMB      94              0.0000000000
     13363       146  POPC      HS            -23.9148050773      -29.9036795176      -16.6251001877  MEMB      94              0.0000000000
     13364       146  POPC      O21           -25.3347077780      -28.9507307905      -15.3819181562  MEMB      94              0.0000000000
     13365       146  POPC      C21           -26.1734686997      -29.9535683980      -15.5171605914  MEMB      94              0.0000000000
     13366       146  POPC      O22           -26.0467741655      -30.9069799240      -16.2661029870  MEMB      94              0.0000000000
     13367       146  POPC      C22           -27.3480081991      -29.7715151414      -14.5727949999  MEMB      94              0.0000000000
     13368       146  POPC      H2R           -28.2876004072      -29.8015543032      -15.1574776314  MEMB      94              0.0000000000
     13369       146  POPC      H2S           -27.2749821097      -28.7711108069      -14.1018304897  MEMB      94              0.0000000000
     13370       146  POPC      C3            -23.0526672188      -28.1688675079      -15.7286341867  MEMB      94              0.0000000000
     13371       146  POPC      HX            -22.4147933634      -27.7816008215      -16.5524547809  MEMB      94              0.0000000000
     13372       146  POPC      HY            -22.4342685903      -28.9163115295      -15.1795490760  MEMB      94              0.0000000000
     13373       146  POPC      O31           -23.4164476272      -27.0703694714      -14.8841242760  MEMB      94              0.0000000000
     13374       146  POPC      C31           -23.6858406510      -27.3838503701      -13.6163058098  MEMB      94              0.0000000000
     13375       146  POPC      O32           -23.4105267884      -28.4324725078      -13.0587354670  MEMB      94              0.0000000000
     13376       146  POPC      C32           -24.3786441002      -26.1863041266      -12.9651238595  MEMB      94              0.0000000000
     13377       146  POPC      H2X           -24.2907588211      -25.3486202374      -13.6897506821  MEMB      94              0.0000000000
     13378       146  POPC      H2Y           -23.8440541234      -25.9234390047      -12.0326578198  MEMB      94              0.0000000000
     13379       146  POPC      C23           -27.3516561459      -30.8526225927      -13.4797141141  MEMB      94              0.0000000000
     13380       146  POPC      H3R           -27.7920637014      -30.3992063012      -12.5747688699  MEMB      94              0.0000000000
     13381       146  POPC      H3S           -26.3160930880      -31.1554527868      -13.2040678137  MEMB      94              0.0000000000
     13382       146  POPC      C24           -28.1913542796      -32.0822964706      -13.8255271202  MEMB      94              0.0000000000
     13383       146  POPC      H4R           -27.7545561033      -32.5612568246      -14.7334469616  MEMB      94              0.0000000000
     13384       146  POPC      H4S           -29.2361704385      -31.7929046326      -14.0698225900  MEMB      94              0.0000000000
     13385       146  POPC      C25           -28.1890742012      -33.1134355006      -12.6839755743  MEMB      94              0.0000000000
     13386       146  POPC      H5R           -27.2096529370      -33.1091108430      -12.1660683759  MEMB      94              0.0000000000
     13387       146  POPC      H5S           -28.2962112080      -34.1176349215      -13.1611831386  MEMB      94              0.0000000000
     13388       146  POPC      C26           -29.3615379529      -32.9768888668      -11.6915187443  MEMB      94              0.0000000000
     13389       146  POPC      H6R           -29.4797139532      -33.9430045803      -11.1562024473  MEMB      94              0.0000000000
     13390       146  POPC      H6S           -30.2872079050      -32.8445000725      -12.2976845717  MEMB      94              0.0000000000
     13391       146  POPC      C27           -29.2927769760      -31.8503730939      -10.6329597477  MEMB      94              0.0000000000
     13392       146  POPC      H7R           -30.3540578884      -31.6341505981      -10.3619198012  MEMB      94              0.0000000000
     13393       146  POPC      H7S           -28.8921517557      -30.9079263376      -11.0415107067  MEMB      94              0.0000000000
     13394       146  POPC      C28           -28.5851426799      -32.1996874210       -9.2967308124  MEMB      94              0.0000000000
     13395       146  POPC      H8R           -29.0205550764      -33.1623794730       -8.9551222898  MEMB      94              0.0000000000
     13396       146  POPC      H8S           -28.9146258295      -31.4363013512       -8.5570152989  MEMB      94              0.0000000000
     13397       146  POPC      C29           -27.0722300234      -32.2992969885       -9.3293064280  MEMB      94              0.0000000000
     13398       146  POPC      H91           -26.6865191428      -32.8892571412      -10.1723134185  MEMB      94              0.0000000000
     13399       146  POPC      C210          -26.1744122592      -31.8241572797       -8.4326784780  MEMB      94              0.0000000000
     13400       146  POPC      H101          -25.1039480648      -32.0060552140       -8.6190486028  MEMB      94              0.0000000000
     13401       146  POPC      C211          -26.4627872776      -31.0647744923       -7.1582717390  MEMB      94              0.0000000000
     13402       146  POPC      H11R          -27.5552232860      -31.0245855551       -6.9897448730  MEMB      94              0.0000000000
     13403       146  POPC      H11S          -26.0922862041      -30.0181712678       -7.2400489067  MEMB      94              0.0000000000
     13404       146  POPC      C212          -25.8980591889      -31.6676561101       -5.8595448894  MEMB      94              0.0000000000
     13405       146  POPC      H12R          -24.7972432851      -31.6170199379       -5.8454868223  MEMB      94              0.0000000000
     13406       146  POPC      H12S          -26.1760398096      -32.7397862758       -5.8082188837  MEMB      94              0.0000000000
     13407       146  POPC      C213          -26.4176005009      -30.9611888364       -4.5979557602  MEMB      94              0.0000000000
     13408       146  POPC      H13R          -27.5236932768      -30.8552820901       -4.6640239921  MEMB      94              0.0000000000
     13409       146  POPC      H13S          -25.9803478039      -29.9395896996       -4.5351653452  MEMB      94              0.0000000000
     13410       146  POPC      C214          -26.0827811053      -31.7585995983       -3.3338535359  MEMB      94              0.0000000000
     13411       146  POPC      H14R          -24.9873649394      -31.9347417091       -3.2775337392  MEMB      94              0.0000000000
     13412       146  POPC      H14S          -26.5744612555      -32.7546135740       -3.4203946961  MEMB      94              0.0000000000
     13413       146  POPC      C215          -26.5526469672      -31.0882858538       -2.0351561336  MEMB      94              0.0000000000
     13414       146  POPC      H15R          -26.5652553593      -31.8750690469       -1.2491535031  MEMB      94              0.0000000000
     13415       146  POPC      H15S          -27.5955938243      -30.7247810025       -2.1471671484  MEMB      94              0.0000000000
     13416       146  POPC      C216          -25.6267457053      -29.9439441291       -1.5801509497  MEMB      94              0.0000000000
     13417       146  POPC      H16R          -25.6455370087      -29.1330775988       -2.3392450701  MEMB      94              0.0000000000
     13418       146  POPC      H16S          -24.5866476261      -30.3380238402       -1.5404135059  MEMB      94              0.0000000000
     13419       146  POPC      C217          -25.9947400140      -29.3703406451       -0.1987133823  MEMB      94              0.0000000000
     13420       146  POPC      H17R          -26.2774090712      -30.2154386610        0.4586722769  MEMB      94              0.0000000000
     13421       146  POPC      H17S          -26.9006700663      -28.7313634129       -0.2950527647  MEMB      94              0.0000000000
     13422       146  POPC      C218          -24.8758811531      -28.5866796077        0.5080863764  MEMB      94              0.0000000000
     13423       146  POPC      H18R          -24.7707876850      -28.9208064983        1.5613088135  MEMB      94              0.0000000000
     13424       146  POPC      H18S          -25.0904889025      -27.4990491330        0.5353678430  MEMB      94              0.0000000000
     13425       146  POPC      H18T          -23.9053014879      -28.7379003036       -0.0109035046  MEMB      94              0.0000000000
     13426       146  POPC      C33           -25.8857050288      -26.4113896908      -12.7181511479  MEMB      94              0.0000000000
     13427       146  POPC      H3X           -26.3205943432      -26.9785259898      -13.5702753804  MEMB      94              0.0000000000
     13428       146  POPC      H3Y           -26.3888618982      -25.4164944869      -12.7169905000  MEMB      94              0.0000000000
     13429       146  POPC      C34           -26.2063299906      -27.1079097619      -11.3890097405  MEMB      94              0.0000000000
     13430       146  POPC      H4X           -26.0037539828      -26.3953897519      -10.5594542144  MEMB      94              0.0000000000
     13431       146  POPC      H4Y           -25.5481088964      -27.9949931489      -11.2482725767  MEMB      94              0.0000000000
     13432       146  POPC      C35           -27.6720266389      -27.5609608230      -11.3355407566  MEMB      94              0.0000000000
     13433       146  POPC      H5X           -27.7530845763      -28.5828648751      -11.7495137636  MEMB      94              0.0000000000
     13434       146  POPC      H5Y           -28.2642613425      -26.8971673848      -12.0064996373  MEMB      94              0.0000000000
     13435       146  POPC      C36           -28.3370841878      -27.5121450434       -9.9527691128  MEMB      94              0.0000000000
     13436       146  POPC      H6X           -29.4245377260      -27.7167068704      -10.1072278931  MEMB      94              0.0000000000
     13437       146  POPC      H6Y           -28.2223791764      -26.4965941202       -9.5234358287  MEMB      94              0.0000000000
     13438       146  POPC      C37           -27.8337992591      -28.5095611614       -8.9136735842  MEMB      94              0.0000000000
     13439       146  POPC      H7X           -26.7590397719      -28.3358645537       -8.6922225616  MEMB      94              0.0000000000
     13440       146  POPC      H7Y           -27.9217750122      -29.5270438712       -9.3518583527  MEMB      94              0.0000000000
     13441       146  POPC      C38           -28.6731582650      -28.4354549338       -7.6251464929  MEMB      94              0.0000000000
     13442       146  POPC      H8X           -28.6342991696      -29.4090276864       -7.1008387207  MEMB      94              0.0000000000
     13443       146  POPC      H8Y           -29.7439081884      -28.2708318601       -7.8729689372  MEMB      94              0.0000000000
     13444       146  POPC      C39           -28.1934883245      -27.3688261492       -6.6330083514  MEMB      94              0.0000000000
     13445       146  POPC      H9X           -28.5961410344      -26.3784465488       -6.9351113808  MEMB      94              0.0000000000
     13446       146  POPC      H9Y           -27.0815460034      -27.3104441120       -6.6547511803  MEMB      94              0.0000000000
     13447       146  POPC      C310          -28.6078884885      -27.7034906612       -5.1945326215  MEMB      94              0.0000000000
     13448       146  POPC      H10X          -28.0322656390      -28.5964566480       -4.8657055563  MEMB      94              0.0000000000
     13449       146  POPC      H10Y          -29.6765922644      -27.9884507506       -5.1635506879  MEMB      94              0.0000000000
     13450       146  POPC      C311          -28.3556865021      -26.5554104650       -4.2084528747  MEMB      94              0.0000000000
     13451       146  POPC      H11X          -29.1187638908      -25.7680644722       -4.3720837357  MEMB      94              0.0000000000
     13452       146  POPC      H11Y          -27.3623179925      -26.1119814219       -4.4380062009  MEMB      94              0.0000000000
     13453       146  POPC      C312          -28.3828042406      -27.0410920524       -2.7491907266  MEMB      94              0.0000000000
     13454       146  POPC      H12X          -27.6575086444      -27.8785722152       -2.6458881276  MEMB      94              0.0000000000
     13455       146  POPC      H12Y          -29.3782109131      -27.4612959518       -2.5255112619  MEMB      94              0.0000000000
     13456       146  POPC      C313          -28.0822204806      -25.9761721806       -1.6802011330  MEMB      94              0.0000000000
     13457       146  POPC      H13X          -28.0614939516      -26.4920101315       -0.6914667676  MEMB      94              0.0000000000
     13458       146  POPC      H13Y          -28.9027083031      -25.2337421260       -1.6411931729  MEMB      94              0.0000000000
     13459       146  POPC      C314          -26.7398396690      -25.2620797341       -1.8713178774  MEMB      94              0.0000000000
     13460       146  POPC      H14X          -26.5181153673      -24.6554206504       -0.9635023308  MEMB      94              0.0000000000
     13461       146  POPC      H14Y          -26.7783165598      -24.5697533458       -2.7376048513  MEMB      94              0.0000000000
     13462       146  POPC      C315          -25.6281565300      -26.2799780695       -2.0922941120  MEMB      94              0.0000000000
     13463       146  POPC      H15X          -25.7375014917      -26.7782428524       -3.0812874397  MEMB      94              0.0000000000
     13464       146  POPC      H15Y          -25.7714835653      -27.0602941535       -1.3288547899  MEMB      94              0.0000000000
     13465       146  POPC      C316          -24.2251582363      -25.7270307708       -1.9791037777  MEMB      94              0.0000000000
     13466       146  POPC      H16X          -23.5064073686      -26.5643145506       -1.9429558984  MEMB      94              0.0000000000
     13467       146  POPC      H16Y          -24.0932371846      -25.1145973523       -1.0649983246  MEMB      94              0.0000000000
     13468       146  POPC      H16Z          -24.0124382710      -25.1110334188       -2.8742434244  MEMB      94              0.0000000000
     13469       147  TIP3      OH2           -18.1625643733      -20.0452660347       26.7711760549  TIP3      1               0.0000000000
     13470       147  TIP3      H1            -18.0715449079      -19.1990106064       27.2456632644  TIP3      1               0.0000000000
     13471       147  TIP3      H2            -18.9603865412      -19.8893020369       26.2449298485  TIP3      1               0.0000000000
     13472       148  TIP3      OH2           -19.1724091803      -21.4103901323       30.0626393863  TIP3      2               0.0000000000
     13473       148  TIP3      H1            -19.1624677753      -21.6025457370       31.0288465043  TIP3      2               0.0000000000
     13474       148  TIP3      H2            -19.9203610467      -21.9594376749       29.7583402582  TIP3      2               0.0000000000
     13475       149  TIP3      OH2           -27.1302535164      -21.1371770601       31.3430440578  TIP3      3               0.0000000000
     13476       149  TIP3      H1            -27.3540207304      -21.6536651753       32.1366077415  TIP3      3               0.0000000000
     13477       149  TIP3      H2            -26.1722110411      -21.2869031490       31.2484120893  TIP3      3               0.0000000000
     13478       150  TIP3      OH2           -16.2919126784      -17.9719015119       29.0282094394  TIP3      4               0.0000000000
     13479       150  TIP3      H1            -16.3987053971      -18.6718558029       29.6941156436  TIP3      4               0.0000000000
     13480       150  TIP3      H2            -16.1457656873      -17.1962866887       29.5914435819  TIP3      4               0.0000000000
     13481       151  TIP3      OH2           -26.7669692548      -16.9532744267       30.3331772525  TIP3      5               0.0000000000
     13482       151  TIP3      H1            -26.8108138435      -17.8538739961       29.9503171100  TIP3      5               0.0000000000
     13483       151  TIP3      H2            -25.8571479756      -16.7154336001       30.1285676289  TIP3      5               0.0000000000
     13484       152  TIP3      OH2           -29.2466969773      -22.8445296826       25.1087331352  TIP3      6               0.0000000000
     13485       152  TIP3      H1            -29.6958138518      -22.0172955449       25.3282946480  TIP3      6               0.0000000000
     13486       152  TIP3      H2            -29.7879244116      -23.4620120550       25.6617642045  TIP3      6               0.0000000000
     13487       153  TIP3      OH2           -29.3165286947      -20.9097625359       28.0206641635  TIP3      7               0.0000000000
     13488       153  TIP3      H1            -28.9220916969      -21.7921484224       28.1770664091  TIP3      7               0.0000000000
     13489       153  TIP3      H2            -28.5571786565      -20.3111507708       28.0749913992  TIP3      7               0.0000000000
     13490       154  TIP3      OH2           -18.7237542014      -12.8030322860       28.5721468001  TIP3      8               0.0000000000
     13491       154  TIP3      H1            -17.8464392582      -13.1972856184       28.3435723988  TIP3      8               0.0000000000
     13492       154  TIP3      H2            -18.9760889025      -13.3703847288       29.3104477509  TIP3      8               0.0000000000
     13493       155  TIP3      OH2           -21.3421790074      -17.9535408433       31.0649497609  TIP3      9               0.0000000000
     13494       155  TIP3      H1            -20.8783620940      -18.5059509115       30.4219437848  TIP3      9               0.0000000000
     13495       155  TIP3      H2            -20.5738055105      -17.4853380755       31.4584969302  TIP3      9               0.0000000000
     13496       156  TIP3      OH2           -12.6790434685      -26.9174833270       30.8773646394  TIP3      10              0.0000000000
     13497       156  TIP3      H1            -12.6771641139      -26.2122568970       31.5593383168  TIP3      10              0.0000000000
     13498       156  TIP3      H2            -11.9044317935      -26.6312749759       30.3571999048  TIP3      10              0.0000000000
     13499       157  TIP3      OH2           -17.6868256443      -23.9923790556       31.2679755625  TIP3      11              0.0000000000
     13500       157  TIP3      H1            -17.5437076574      -24.9044285228       31.5761027621  TIP3      11              0.0000000000
     13501       157  TIP3      H2            -17.4900212093      -24.0886956641       30.3089583859  TIP3      11              0.0000000000
     13502       158  TIP3      OH2           -25.1074907103      -25.9900022048       28.1101127420  TIP3      12              0.0000000000
     13503       158  TIP3      H1            -24.6362758027      -25.2950220079       27.6027661171  TIP3      12              0.0000000000
     13504       158  TIP3      H2            -25.4262943196      -26.5487491918       27.3640139041  TIP3      12              0.0000000000
     13505       159  TIP3      OH2           -17.2982263979      -25.9908714417       26.7849840177  TIP3      13              0.0000000000
     13506       159  TIP3      H1            -16.7610072273      -26.4128598444       27.4953211440  TIP3      13              0.0000000000
     13507       159  TIP3      H2            -16.9446242933      -25.0910287500       26.7577311467  TIP3      13              0.0000000000
     13508       160  TIP3      OH2           -28.2316008655      -23.3787585880       28.6536193472  TIP3      14              0.0000000000
     13509       160  TIP3      H1            -27.5870151266      -23.8244916874       29.2424781482  TIP3      14              0.0000000000
     13510       160  TIP3      H2            -27.9573291015      -23.7930872807       27.8087517434  TIP3      14              0.0000000000
     13511       161  TIP3      OH2           -23.4177943478      -22.1073716069       28.5421734599  TIP3      15              0.0000000000
     13512       161  TIP3      H1            -22.6218349968      -22.6262374892       28.7559447192  TIP3      15              0.0000000000
     13513       161  TIP3      H2            -23.8814549420      -22.7647856725       27.9807287358  TIP3      15              0.0000000000
     13514       162  TIP3      OH2           -12.2746582082      -25.5651311227       33.2633689527  TIP3      16              0.0000000000
     13515       162  TIP3      H1            -12.7261249299      -24.7049288303       33.1225921701  TIP3      16              0.0000000000
     13516       162  TIP3      H2            -12.4639980060      -25.6561763476       34.2179786154  TIP3      16              0.0000000000
     13517       163  TIP3      OH2           -25.6471399742      -26.5508378840       31.9472159658  TIP3      17              0.0000000000
     13518       163  TIP3      H1            -25.9207031330      -25.9848448147       31.2026359517  TIP3      17              0.0000000000
     13519       163  TIP3      H2            -26.2890738464      -26.2544659034       32.6273340894  TIP3      17              0.0000000000
     13520       164  TIP3      OH2           -18.6500433543      -17.2716596518       25.7490369931  TIP3      18              0.0000000000
     13521       164  TIP3      H1            -19.3293328512      -17.6183794214       25.1565815612  TIP3      18              0.0000000000
     13522       164  TIP3      H2            -19.0207460030      -16.3943273979       25.9946110686  TIP3      18              0.0000000000
     13523       165  TIP3      OH2           -23.5802996621      -19.0501585697       32.0075040311  TIP3      19              0.0000000000
     13524       165  TIP3      H1            -24.1669230198      -18.3226998605       32.3159167800  TIP3      19              0.0000000000
     13525       165  TIP3      H2            -22.8075549727      -18.5316498745       31.6852348847  TIP3      19              0.0000000000
     13526       166  TIP3      OH2           -15.6820182452      -26.6698572382       28.9164677882  TIP3      20              0.0000000000
     13527       166  TIP3      H1            -16.2479515847      -26.4177182745       29.6706566749  TIP3      20              0.0000000000
     13528       166  TIP3      H2            -14.8443207246      -26.2404013490       29.1423947199  TIP3      20              0.0000000000
     13529       167  TIP3      OH2           -26.3089895407      -24.6885251005       30.0616549046  TIP3      21              0.0000000000
     13530       167  TIP3      H1            -25.6378762145      -24.1396971617       30.5289497357  TIP3      21              0.0000000000
     13531       167  TIP3      H2            -25.7216825384      -25.2633755045       29.5047803696  TIP3      21              0.0000000000
     13532       168  TIP3      OH2           -24.8840134575      -16.9968634604       33.1317179016  TIP3      22              0.0000000000
     13533       168  TIP3      H1            -25.2063165069      -16.1554054707       32.7783780625  TIP3      22              0.0000000000
     13534       168  TIP3      H2            -25.6792789309      -17.2730834300       33.6507153924  TIP3      22              0.0000000000
     13535       169  TIP3      OH2           -28.7497636976      -16.9637151519       23.9960124159  TIP3      23              0.0000000000
     13536       169  TIP3      H1            -28.3377219088      -16.1989272609       23.5541225105  TIP3      23              0.0000000000
     13537       169  TIP3      H2            -28.5431384811      -16.7425285796       24.9133364242  TIP3      23              0.0000000000
     13538       170  TIP3      OH2           -15.2938231844      -15.9529710548       31.0415327794  TIP3      24              0.0000000000
     13539       170  TIP3      H1            -16.2457692766      -15.7772839832       31.2002455302  TIP3      24              0.0000000000
     13540       170  TIP3      H2            -15.1071901124      -15.1485723657       30.5150442806  TIP3      24              0.0000000000
     13541       171  TIP3      OH2           -14.6997680430      -27.7919403291       32.7036354777  TIP3      25              0.0000000000
     13542       171  TIP3      H1            -15.4086372740      -27.4368929023       32.1315710861  TIP3      25              0.0000000000
     13543       171  TIP3      H2            -13.9293748112      -27.6645696524       32.1236185740  TIP3      25              0.0000000000
     13544       172  TIP3      OH2           -22.1384964916      -29.3826256977       29.4233248259  TIP3      26              0.0000000000
     13545       172  TIP3      H1            -22.0188582222      -30.0148466373       30.1477028740  TIP3      26              0.0000000000
     13546       172  TIP3      H2            -22.9025679929      -28.8763183535       29.8022826638  TIP3      26              0.0000000000
     13547       173  TIP3      OH2           -16.6823627892      -14.3623847025       27.7525458293  TIP3      27              0.0000000000
     13548       173  TIP3      H1            -16.6959315647      -15.1459088768       27.1755604252  TIP3      27              0.0000000000
     13549       173  TIP3      H2            -15.8819388876      -13.8835388795       27.4275229243  TIP3      27              0.0000000000
     13550       174  TIP3      OH2           -15.3970225562      -16.5179600308       26.0468407588  TIP3      28              0.0000000000
     13551       174  TIP3      H1            -15.7715134360      -17.0647952944       25.3332945767  TIP3      28              0.0000000000
     13552       174  TIP3      H2            -15.7352370136      -16.9548184404       26.8447263438  TIP3      28              0.0000000000
     13553       175  TIP3      OH2           -14.4157127804      -17.6181827068       34.7133994528  TIP3      29              0.0000000000
     13554       175  TIP3      H1            -14.3554364792      -18.2439144498       33.9545028140  TIP3      29              0.0000000000
     13555       175  TIP3      H2            -14.0881840454      -16.7956575317       34.2933216996  TIP3      29              0.0000000000
     13556       176  TIP3      OH2           -19.6701474661      -21.0413553963       24.2128068033  TIP3      30              0.0000000000
     13557       176  TIP3      H1            -20.2151434866      -20.2410201293       24.0474068531  TIP3      30              0.0000000000
     13558       176  TIP3      H2            -18.8314566831      -20.8237855555       23.7642097699  TIP3      30              0.0000000000
     13559       177  TIP3      OH2           -12.5109956617      -21.1306528007       32.4580277419  TIP3      31              0.0000000000
     13560       177  TIP3      H1            -13.2236490857      -20.4585982123       32.4532454144  TIP3      31              0.0000000000
     13561       177  TIP3      H2            -11.9345184442      -20.7458341863       31.7755978598  TIP3      31              0.0000000000
     13562       178  TIP3      OH2           -15.6662688949      -20.3622379602       25.4927420207  TIP3      32              0.0000000000
     13563       178  TIP3      H1            -16.5190811763      -20.1958339343       25.9611667085  TIP3      32              0.0000000000
     13564       178  TIP3      H2            -15.3098457887      -21.0685219584       26.0674498861  TIP3      32              0.0000000000
     13565       179  TIP3      OH2           -16.6173697760      -22.0360413729       34.5240107283  TIP3      33              0.0000000000
     13566       179  TIP3      H1            -16.4459344255      -21.0897574442       34.6471465065  TIP3      33              0.0000000000
     13567       179  TIP3      H2            -17.3773499358      -21.9838788844       33.9015209579  TIP3      33              0.0000000000
     13568       180  TIP3      OH2           -24.4400323703      -19.9801794756       27.0100412305  TIP3      34              0.0000000000
     13569       180  TIP3      H1            -24.7443760886      -20.3760017439       26.1723887542  TIP3      34              0.0000000000
     13570       180  TIP3      H2            -23.9086621941      -20.7081626801       27.4030143049  TIP3      34              0.0000000000
     13571       181  TIP3      OH2           -23.2602482098      -16.5102140647       29.8727454843  TIP3      35              0.0000000000
     13572       181  TIP3      H1            -23.3347397430      -16.7945025983       28.9459755114  TIP3      35              0.0000000000
     13573       181  TIP3      H2            -22.5037112674      -17.0206389226       30.2376831656  TIP3      35              0.0000000000
     13574       182  TIP3      OH2           -24.4512727058      -21.2343899690       30.8672125414  TIP3      36              0.0000000000
     13575       182  TIP3      H1            -24.0826195293      -21.3223630151       29.9593841554  TIP3      36              0.0000000000
     13576       182  TIP3      H2            -24.0330551228      -20.3969633413       31.1855989228  TIP3      36              0.0000000000
     13577       183  TIP3      OH2           -17.8544943028      -15.4280631553       31.4040409395  TIP3      37              0.0000000000
     13578       183  TIP3      H1            -18.0937128838      -14.7395200240       32.0485365246  TIP3      37              0.0000000000
     13579       183  TIP3      H2            -18.1437826713      -16.2404459986       31.8690893304  TIP3      37              0.0000000000
     13580       184  TIP3      OH2           -23.5354277192      -16.8043252948       35.3841997277  TIP3      38              0.0000000000
     13581       184  TIP3      H1            -24.2889862804      -16.3294620044       35.8096569979  TIP3      38              0.0000000000
     13582       184  TIP3      H2            -23.8859593385      -16.8829688981       34.4690554726  TIP3      38              0.0000000000
     13583       185  TIP3      OH2           -17.0579804306      -21.2148054415       23.3002242098  TIP3      39              0.0000000000
     13584       185  TIP3      H1            -16.5403448887      -20.9010561172       24.0772248212  TIP3      39              0.0000000000
     13585       185  TIP3      H2            -16.5975765720      -20.7309184993       22.5812128504  TIP3      39              0.0000000000
     13586       186  TIP3      OH2           -26.3536416839      -20.9615285542       34.7579105319  TIP3      40              0.0000000000
     13587       186  TIP3      H1            -26.2634432132      -20.0923505321       35.1754192212  TIP3      40              0.0000000000
     13588       186  TIP3      H2            -27.2909074288      -21.1255506684       34.9630333595  TIP3      40              0.0000000000
     13589       187  TIP3      OH2           -19.2272015411      -14.7729781956       26.6558550199  TIP3      41              0.0000000000
     13590       187  TIP3      H1            -18.7598217202      -14.3849320480       27.4094443743  TIP3      41              0.0000000000
     13591       187  TIP3      H2            -19.9389939849      -14.1333476620       26.5408995931  TIP3      41              0.0000000000
     13592       188  TIP3      OH2           -25.4339329530      -15.1307121443       36.2484665598  TIP3      42              0.0000000000
     13593       188  TIP3      H1            -25.5149596435      -14.7314392488       35.3516144028  TIP3      42              0.0000000000
     13594       188  TIP3      H2            -26.3613220780      -15.3874076018       36.4460150597  TIP3      42              0.0000000000
     13595       189  TIP3      OH2           -13.8946323075      -28.9220044485       22.7081094250  TIP3      43              0.0000000000
     13596       189  TIP3      H1            -14.8660430509      -28.8980947789       22.7487612286  TIP3      43              0.0000000000
     13597       189  TIP3      H2            -13.8133127804      -29.4650980826       21.9066879950  TIP3      43              0.0000000000
     13598       190  TIP3      OH2           -25.9629168345      -21.0445417546       24.8239711977  TIP3      44              0.0000000000
     13599       190  TIP3      H1            -26.4848232978      -20.2314838244       24.8871547077  TIP3      44              0.0000000000
     13600       190  TIP3      H2            -26.6066172699      -21.7550169795       24.9812927130  TIP3      44              0.0000000000
     13601       191  TIP3      OH2           -29.0468709132      -18.6901660647       33.5838129237  TIP3      45              0.0000000000
     13602       191  TIP3      H1            -29.9849510048      -18.6372868907       33.3730801098  TIP3      45              0.0000000000
     13603       191  TIP3      H2            -28.9974388231      -19.5857854638       33.9666263588  TIP3      45              0.0000000000
     13604       192  TIP3      OH2           -29.5828374275      -15.4622398701       29.7489493490  TIP3      46              0.0000000000
     13605       192  TIP3      H1            -29.5433342856      -16.4318201051       29.8090193588  TIP3      46              0.0000000000
     13606       192  TIP3      H2            -28.8865865049      -15.1924954885       30.3795039609  TIP3      46              0.0000000000
     13607       193  TIP3      OH2           -11.8660743919      -15.0595721717       36.2759681535  TIP3      47              0.0000000000
     13608       193  TIP3      H1            -11.9647584259      -16.0105799547       36.4741222525  TIP3      47              0.0000000000
     13609       193  TIP3      H2            -12.7524335681      -14.7489581704       36.5760271588  TIP3      47              0.0000000000
     13610       194  TIP3      OH2           -21.0849466516      -15.5438336958       35.3836069096  TIP3      48              0.0000000000
     13611       194  TIP3      H1            -20.8905455088      -14.8517352530       36.0318835308  TIP3      48              0.0000000000
     13612       194  TIP3      H2            -22.0196649835      -15.8057425754       35.5374015012  TIP3      48              0.0000000000
     13613       195  TIP3      OH2           -20.3837320730      -12.0999033199       24.7104156882  TIP3      49              0.0000000000
     13614       195  TIP3      H1            -20.2054453053      -12.0166624003       23.7447048118  TIP3      49              0.0000000000
     13615       195  TIP3      H2            -20.1407265565      -11.2090811184       25.0217046288  TIP3      49              0.0000000000
     13616       196  TIP3      OH2           -26.6173259676      -12.9930028647       26.7643300522  TIP3      50              0.0000000000
     13617       196  TIP3      H1            -26.4238955672      -13.3337217415       27.6596856237  TIP3      50              0.0000000000
     13618       196  TIP3      H2            -27.3672364458      -13.5628483036       26.4815913912  TIP3      50              0.0000000000
     13619       197  TIP3      OH2           -17.2720033242      -13.2171361983       21.3995706124  TIP3      51              0.0000000000
     13620       197  TIP3      H1            -16.8110135124      -13.5567306394       20.5894211500  TIP3      51              0.0000000000
     13621       197  TIP3      H2            -16.7474948527      -13.6733957072       22.0668192462  TIP3      51              0.0000000000
     13622       198  TIP3      OH2           -17.5288973174      -12.6210366466       25.0356100189  TIP3      52              0.0000000000
     13623       198  TIP3      H1            -18.4482582736      -12.3195862158       25.1453985905  TIP3      52              0.0000000000
     13624       198  TIP3      H2            -17.6458285478      -13.5754976674       25.1407628498  TIP3      52              0.0000000000
     13625       199  TIP3      OH2           -15.1144731604      -23.6881505045       36.6035909610  TIP3      53              0.0000000000
     13626       199  TIP3      H1            -15.4536535086      -23.1756867913       35.8490431996  TIP3      53              0.0000000000
     13627       199  TIP3      H2            -15.0141947698      -24.5758309256       36.2155132589  TIP3      53              0.0000000000
     13628       200  TIP3      OH2           -27.0415221993      -17.3425471017       34.6349822930  TIP3      54              0.0000000000
     13629       200  TIP3      H1            -27.1378864864      -17.7414200709       35.5223091081  TIP3      54              0.0000000000
     13630       200  TIP3      H2            -27.8070835679      -17.7777951161       34.1662603862  TIP3      54              0.0000000000
     13631       201  TIP3      OH2           -24.3385888876      -28.4110407122       30.4707662994  TIP3      55              0.0000000000
     13632       201  TIP3      H1            -25.1387069178      -28.5876416745       29.9388923386  TIP3      55              0.0000000000
     13633       201  TIP3      H2            -24.7047697586      -27.7460177343       31.0900481238  TIP3      55              0.0000000000
     13634       202  TIP3      OH2           -20.2752933113      -28.2342501298       34.8834139563  TIP3      56              0.0000000000
     13635       202  TIP3      H1            -19.7382961062      -28.9535181231       34.4950761507  TIP3      56              0.0000000000
     13636       202  TIP3      H2            -21.1900420313      -28.5258864707       34.6861539684  TIP3      56              0.0000000000
     13637       203  TIP3      OH2           -17.1604722055      -24.7358139237       34.4097303658  TIP3      57              0.0000000000
     13638       203  TIP3      H1            -17.5782020442      -25.1137403880       35.2146414290  TIP3      57              0.0000000000
     13639       203  TIP3      H2            -17.0311698751      -23.8069279975       34.6912670777  TIP3      57              0.0000000000
     13640       204  TIP3      OH2           -15.9597620917      -19.9900251070       21.1915063592  TIP3      58              0.0000000000
     13641       204  TIP3      H1            -15.4857382902      -19.7770474263       20.3743819577  TIP3      58              0.0000000000
     13642       204  TIP3      H2            -15.8964608677      -19.1270037207       21.6547610337  TIP3      58              0.0000000000
     13643       205  TIP3      OH2           -24.4529734030      -23.7201952581       31.7309148409  TIP3      59              0.0000000000
     13644       205  TIP3      H1            -25.1301491729      -23.7138530496       32.4266429847  TIP3      59              0.0000000000
     13645       205  TIP3      H2            -24.3265976972      -22.7504910439       31.6076991115  TIP3      59              0.0000000000
     13646       206  TIP3      OH2           -24.4068374492      -23.7870433395       26.7495975005  TIP3      60              0.0000000000
     13647       206  TIP3      H1            -25.3700904346      -23.8113350842       26.5619970065  TIP3      60              0.0000000000
     13648       206  TIP3      H2            -24.0393195829      -24.0225756837       25.8659650338  TIP3      60              0.0000000000
     13649       207  TIP3      OH2           -18.5224041245      -23.0891750796       25.8048879602  TIP3      61              0.0000000000
     13650       207  TIP3      H1            -18.8795308434      -22.2809115449       25.3679270912  TIP3      61              0.0000000000
     13651       207  TIP3      H2            -18.1271086457      -23.5507763412       25.0390149311  TIP3      61              0.0000000000
     13652       208  TIP3      OH2           -20.0598912068      -22.4700873122       36.6868429384  TIP3      62              0.0000000000
     13653       208  TIP3      H1            -20.5114791273      -23.2762119184       37.0474308638  TIP3      62              0.0000000000
     13654       208  TIP3      H2            -19.4026605509      -22.3536880973       37.4008989861  TIP3      62              0.0000000000
     13655       209  TIP3      OH2           -17.5415861327      -23.6576703571       28.5157707652  TIP3      63              0.0000000000
     13656       209  TIP3      H1            -17.9011730446      -22.8520310586       28.1027642756  TIP3      63              0.0000000000
     13657       209  TIP3      H2            -18.0311219836      -24.2911174454       27.9699666538  TIP3      63              0.0000000000
     13658       210  TIP3      OH2           -27.4317900411      -23.4948721682       33.0953077138  TIP3      64              0.0000000000
     13659       210  TIP3      H1            -27.0478912630      -23.0500908300       33.8657877785  TIP3      64              0.0000000000
     13660       210  TIP3      H2            -27.5615437892      -24.3970198697       33.4420749032  TIP3      64              0.0000000000
     13661       211  TIP3      OH2           -29.9365523292      -26.4370070477       27.2129217360  TIP3      65              0.0000000000
     13662       211  TIP3      H1            -29.4359919718      -26.4747277940       28.0588332216  TIP3      65              0.0000000000
     13663       211  TIP3      H2            -29.8367789220      -27.3341086729       26.8729040414  TIP3      65              0.0000000000
     13664       212  TIP3      OH2           -28.6769093658      -25.4341624730       24.1247760659  TIP3      66              0.0000000000
     13665       212  TIP3      H1            -27.8788542739      -25.4976671448       23.5747523731  TIP3      66              0.0000000000
     13666       212  TIP3      H2            -28.9824419897      -24.5098295696       24.0358938397  TIP3      66              0.0000000000
     13667       213  TIP3      OH2           -18.7787232122      -22.0493352838       32.7136105996  TIP3      67              0.0000000000
     13668       213  TIP3      H1            -18.3297137702      -22.7707754208       32.1997840501  TIP3      67              0.0000000000
     13669       213  TIP3      H2            -19.3729797641      -22.5991173205       33.2846915796  TIP3      67              0.0000000000
     13670       214  TIP3      OH2           -21.5720014830      -26.5872419439       27.6296092029  TIP3      68              0.0000000000
     13671       214  TIP3      H1            -22.5409752975      -26.6494102664       27.6654413972  TIP3      68              0.0000000000
     13672       214  TIP3      H2            -21.3476229930      -26.4708384185       28.5677124071  TIP3      68              0.0000000000
     13673       215  TIP3      OH2           -27.0602370300      -24.5835531840       26.3183349359  TIP3      69              0.0000000000
     13674       215  TIP3      H1            -27.8470360719      -24.6276294976       25.7383260885  TIP3      69              0.0000000000
     13675       215  TIP3      H2            -26.6531682522      -25.4499130518       26.1105474169  TIP3      69              0.0000000000
     13676       216  TIP3      OH2           -23.4695740106      -24.2383962260       24.2809329009  TIP3      70              0.0000000000
     13677       216  TIP3      H1            -22.5316009464      -24.3887372793       24.5579310911  TIP3      70              0.0000000000
     13678       216  TIP3      H2            -23.3840981880      -23.5946212445       23.5566935965  TIP3      70              0.0000000000
     13679       217  TIP3      OH2           -17.3112181588      -26.8884064904       31.0697643860  TIP3      71              0.0000000000
     13680       217  TIP3      H1            -18.1025506808      -26.8268431640       31.6353297542  TIP3      71              0.0000000000
     13681       217  TIP3      H2            -17.6637567531      -27.5390926426       30.4295126039  TIP3      71              0.0000000000
     13682       218  TIP3      OH2           -24.2899951961      -23.1816454544       21.7423091823  TIP3      72              0.0000000000
     13683       218  TIP3      H1            -24.9434989620      -23.8609950757       21.9967018283  TIP3      72              0.0000000000
     13684       218  TIP3      H2            -24.0241141771      -23.5748612079       20.8851165522  TIP3      72              0.0000000000
     13685       219  TIP3      OH2           -14.8246617885      -11.2432850239       37.5680334130  TIP3      73              0.0000000000
     13686       219  TIP3      H1            -14.3730449964      -10.6763584740       36.9134470702  TIP3      73              0.0000000000
     13687       219  TIP3      H2            -14.2257956089      -11.1681277475       38.3285271907  TIP3      73              0.0000000000
     13688       220  TIP3      OH2           -26.8262066322      -18.8797716010       36.9025211093  TIP3      74              0.0000000000
     13689       220  TIP3      H1            -26.2180842009      -18.8329919177       37.6656996554  TIP3      74              0.0000000000
     13690       220  TIP3      H2            -27.6384721005      -19.1666981738       37.3638505869  TIP3      74              0.0000000000
     13691       221  TIP3      OH2           -20.7843757248      -23.8102055182       29.8041847694  TIP3      75              0.0000000000
     13692       221  TIP3      H1            -19.9575780558      -24.3057141011       29.8768311833  TIP3      75              0.0000000000
     13693       221  TIP3      H2            -21.2783625915      -24.2185829044       30.5518355378  TIP3      75              0.0000000000
     13694       222  TIP3      OH2           -26.0836714645      -27.1775860461       25.9669688943  TIP3      76              0.0000000000
     13695       222  TIP3      H1            -26.8219769505      -27.6426422695       26.4075887278  TIP3      76              0.0000000000
     13696       222  TIP3      H2            -25.5862328950      -27.9129032301       25.5682580573  TIP3      76              0.0000000000
     13697       223  TIP3      OH2           -21.8620119188      -24.7325236479       32.1305932154  TIP3      77              0.0000000000
     13698       223  TIP3      H1            -22.6953867631      -24.2203539992       32.1426045176  TIP3      77              0.0000000000
     13699       223  TIP3      H2            -21.2923570619      -24.2713604617       32.7879817087  TIP3      77              0.0000000000
     13700       224  TIP3      OH2           -21.1560316276      -18.7100756668       24.1161229728  TIP3      78              0.0000000000
     13701       224  TIP3      H1            -21.9923065779      -19.1248131788       23.8244613651  TIP3      78              0.0000000000
     13702       224  TIP3      H2            -21.4975857457      -18.2545558940       24.9200704225  TIP3      78              0.0000000000
     13703       225  TIP3      OH2           -14.3223598249      -19.2227056847       32.6673465960  TIP3      79              0.0000000000
     13704       225  TIP3      H1            -13.9143490529      -18.8140796745       31.8638976365  TIP3      79              0.0000000000
     13705       225  TIP3      H2            -15.2485586091      -19.2825045233       32.3798716726  TIP3      79              0.0000000000
     13706       226  TIP3      OH2           -20.4484434938      -18.1813316716       34.9047060587  TIP3      80              0.0000000000
     13707       226  TIP3      H1            -20.6105703834      -18.5614626804       35.7788043160  TIP3      80              0.0000000000
     13708       226  TIP3      H2            -20.7612768732      -17.2665713730       35.0258122955  TIP3      80              0.0000000000
     13709       227  TIP3      OH2           -17.1574537615      -24.1051852875       23.6918637388  TIP3      81              0.0000000000
     13710       227  TIP3      H1            -16.2930662378      -24.3123635517       24.1190354186  TIP3      81              0.0000000000
     13711       227  TIP3      H2            -16.9672896386      -23.2058878605       23.3773553195  TIP3      81              0.0000000000
     13712       228  TIP3      OH2           -26.3845595505      -19.2856450978       28.9927585733  TIP3      82              0.0000000000
     13713       228  TIP3      H1            -25.7583021991      -19.4144772016       28.2511374557  TIP3      82              0.0000000000
     13714       228  TIP3      H2            -26.1038483492      -19.9489551930       29.6469789619  TIP3      82              0.0000000000
     13715       229  TIP3      OH2           -29.1125875923      -21.2084733394       34.7687284209  TIP3      83              0.0000000000
     13716       229  TIP3      H1            -29.2140486105      -21.6948490998       35.6049483790  TIP3      83              0.0000000000
     13717       229  TIP3      H2            -29.8009662351      -21.6578193949       34.2514567846  TIP3      83              0.0000000000
     13718       230  TIP3      OH2           -22.4737953962      -21.2502536152       36.5875922767  TIP3      84              0.0000000000
     13719       230  TIP3      H1            -22.8566850305      -21.9623173062       36.0595140792  TIP3      84              0.0000000000
     13720       230  TIP3      H2            -21.5207125255      -21.4922524190       36.5520747559  TIP3      84              0.0000000000
     13721       231  TIP3      OH2           -17.5939454267      -16.0046825394       35.1500480288  TIP3      85              0.0000000000
     13722       231  TIP3      H1            -18.4189990529      -16.0113642227       34.6529869237  TIP3      85              0.0000000000
     13723       231  TIP3      H2            -17.8742521852      -15.4085603077       35.8797448425  TIP3      85              0.0000000000
     13724       232  TIP3      OH2           -11.9640236592      -17.8981282376       35.9786334520  TIP3      86              0.0000000000
     13725       232  TIP3      H1            -12.8653206859      -17.9102218849       35.5917534941  TIP3      86              0.0000000000
     13726       232  TIP3      H2            -11.4242764337      -18.0525570951       35.1771623378  TIP3      86              0.0000000000
     13727       233  TIP3      OH2           -13.0736564795      -15.4145795179       23.2839283693  TIP3      87              0.0000000000
     13728       233  TIP3      H1            -13.7070742984      -15.8149361999       23.8940949279  TIP3      87              0.0000000000
     13729       233  TIP3      H2            -13.5081982454      -15.5329917044       22.4169747543  TIP3      87              0.0000000000
     13730       234  TIP3      OH2           -16.6968699116      -19.9981278944       30.7565082644  TIP3      88              0.0000000000
     13731       234  TIP3      H1            -17.5300186910      -20.4449792107       30.5106849303  TIP3      88              0.0000000000
     13732       234  TIP3      H2            -16.0522980998      -20.4556353188       30.1816407579  TIP3      88              0.0000000000
     13733       235  TIP3      OH2           -24.1928648980      -16.0697383079       27.3402010832  TIP3      89              0.0000000000
     13734       235  TIP3      H1            -23.6963981196      -15.2786106661       27.0341955863  TIP3      89              0.0000000000
     13735       235  TIP3      H2            -24.8872066764      -16.0840001548       26.6664555272  TIP3      89              0.0000000000
     13736       236  TIP3      OH2           -22.3377777755      -17.8621072032       26.4059910712  TIP3      90              0.0000000000
     13737       236  TIP3      H1            -22.9676856127      -17.1473049375       26.6055646451  TIP3      90              0.0000000000
     13738       236  TIP3      H2            -22.8225307713      -18.6372419852       26.7263422725  TIP3      90              0.0000000000
     13739       237  TIP3      OH2           -22.2871250886      -14.0021187502       33.1852255212  TIP3      91              0.0000000000
     13740       237  TIP3      H1            -21.5828062533      -13.4511595526       32.7915740951  TIP3      91              0.0000000000
     13741       237  TIP3      H2            -21.8084256937      -14.4021987420       33.9371362805  TIP3      91              0.0000000000
     13742       238  TIP3      OH2           -24.0583311741      -13.8044837445       25.9891860745  TIP3      92              0.0000000000
     13743       238  TIP3      H1            -24.9820869442      -13.5377499771       26.1756694681  TIP3      92              0.0000000000
     13744       238  TIP3      H2            -23.6216958922      -12.9470573499       26.0257239311  TIP3      92              0.0000000000
     13745       239  TIP3      OH2           -18.9713646707      -17.8636256654       32.4219992716  TIP3      93              0.0000000000
     13746       239  TIP3      H1            -19.3930848405      -18.1879978849       33.2533331988  TIP3      93              0.0000000000
     13747       239  TIP3      H2            -18.3971271490      -18.6086141399       32.1728780433  TIP3      93              0.0000000000
     13748       240  TIP3      OH2           -15.8143464595      -13.4087071278       34.9033672438  TIP3      94              0.0000000000
     13749       240  TIP3      H1            -16.6409054174      -13.8327947148       34.6033292249  TIP3      94              0.0000000000
     13750       240  TIP3      H2            -15.6127772232      -12.7876554722       34.1615536804  TIP3      94              0.0000000000
     13751       241  TIP3      OH2           -11.7652821951      -12.4864458665       22.3697953930  TIP3      95              0.0000000000
     13752       241  TIP3      H1            -11.2780597609      -11.6821255783       22.6498186783  TIP3      95              0.0000000000
     13753       241  TIP3      H2            -12.2183034832      -12.7607830205       23.1864069044  TIP3      95              0.0000000000
     13754       242  TIP3      OH2           -27.7297251588      -26.1682315606       33.9390601144  TIP3      96              0.0000000000
     13755       242  TIP3      H1            -28.3184001515      -25.8649180816       34.6596142837  TIP3      96              0.0000000000
     13756       242  TIP3      H2            -27.8073309776      -27.1414186646       34.0224618653  TIP3      96              0.0000000000
     13757       243  TIP3      OH2           -15.1968341824      -18.4442633444       23.6037982386  TIP3      97              0.0000000000
     13758       243  TIP3      H1            -15.4506514401      -19.0562274410       24.3304825088  TIP3      97              0.0000000000
     13759       243  TIP3      H2            -14.2353848409      -18.3543457547       23.7821621656  TIP3      97              0.0000000000
     13760       244  TIP3      OH2           -28.0552273963      -14.7177010145       32.7806932848  TIP3      98              0.0000000000
     13761       244  TIP3      H1            -27.6454234153      -15.5974005272       32.7892468037  TIP3      98              0.0000000000
     13762       244  TIP3      H2            -27.8414504115      -14.3858720596       33.6672802425  TIP3      98              0.0000000000
     13763       245  TIP3      OH2           -23.5815394300      -16.4059099655       22.6444294435  TIP3      99              0.0000000000
     13764       245  TIP3      H1            -22.6617492229      -16.3189000610       22.9426184198  TIP3      99              0.0000000000
     13765       245  TIP3      H2            -23.6818652314      -15.6903429966       21.9968372237  TIP3      99              0.0000000000
     13766       246  TIP3      OH2           -19.3014302737      -26.3831908446       33.2521072036  TIP3      100             0.0000000000
     13767       246  TIP3      H1            -18.4814229541      -26.0183313538       33.6275588587  TIP3      100             0.0000000000
     13768       246  TIP3      H2            -19.5626859883      -27.0674633419       33.9070366287  TIP3      100             0.0000000000
     13769       247  TIP3      OH2           -18.1400592513      -27.0104433464       24.5244103703  TIP3      101             0.0000000000
     13770       247  TIP3      H1            -18.1570885062      -26.1497525625       24.0774452320  TIP3      101             0.0000000000
     13771       247  TIP3      H2            -17.7348308991      -26.7168785599       25.3786374901  TIP3      101             0.0000000000
     13772       248  TIP3      OH2           -20.7554766366      -15.1292463378       23.4251443626  TIP3      102             0.0000000000
     13773       248  TIP3      H1            -21.0427357849      -14.3292075930       23.8928356917  TIP3      102             0.0000000000
     13774       248  TIP3      H2            -19.9707968775      -14.8271157357       22.9519843500  TIP3      102             0.0000000000
     13775       249  TIP3      OH2           -21.1385612694      -25.0418540013       25.2676885181  TIP3      103             0.0000000000
     13776       249  TIP3      H1            -20.4445485388      -24.4629852060       25.6180802509  TIP3      103             0.0000000000
     13777       249  TIP3      H2            -21.3326414725      -25.6053472920       26.0462129635  TIP3      103             0.0000000000
     13778       250  TIP3      OH2           -20.2704379324      -23.7099221665       34.2499154929  TIP3      104             0.0000000000
     13779       250  TIP3      H1            -20.1582028637      -23.4260433350       35.1878354803  TIP3      104             0.0000000000
     13780       250  TIP3      H2            -20.0651718508      -24.6663597058       34.2549482411  TIP3      104             0.0000000000
     13781       251  TIP3      OH2           -20.3475146031      -28.4017568293       25.9322037948  TIP3      105             0.0000000000
     13782       251  TIP3      H1            -20.3876275927      -27.8086021561       26.7136803583  TIP3      105             0.0000000000
     13783       251  TIP3      H2            -19.5723996977      -28.0371239942       25.4634305845  TIP3      105             0.0000000000
     13784       252  TIP3      OH2           -24.2416472714      -25.9626561395       22.2971718035  TIP3      106             0.0000000000
     13785       252  TIP3      H1            -24.0802514260      -25.5046507564       23.1461857430  TIP3      106             0.0000000000
     13786       252  TIP3      H2            -23.6933138733      -26.7609653305       22.4583594950  TIP3      106             0.0000000000
     13787       253  TIP3      OH2           -14.8608862331      -26.0654218600       34.8309693860  TIP3      107             0.0000000000
     13788       253  TIP3      H1            -15.6710878887      -25.5716180232       34.5907057847  TIP3      107             0.0000000000
     13789       253  TIP3      H2            -14.8272484925      -26.7191238510       34.0994643557  TIP3      107             0.0000000000
     13790       254  TIP3      OH2           -15.2119271536      -21.7499711921       28.9925435754  TIP3      108             0.0000000000
     13791       254  TIP3      H1            -16.0928121331      -22.1682639850       28.9343999127  TIP3      108             0.0000000000
     13792       254  TIP3      H2            -14.7416935964      -22.3756176777       29.5837902388  TIP3      108             0.0000000000
     13793       255  TIP3      OH2           -29.2269257506      -22.0658809335       21.3246303115  TIP3      109             0.0000000000
     13794       255  TIP3      H1            -29.9849650779      -21.5898757791       21.6896313832  TIP3      109             0.0000000000
     13795       255  TIP3      H2            -29.2937975458      -21.8382126950       20.3623408820  TIP3      109             0.0000000000
     13796       256  TIP3      OH2           -14.8166018423      -13.2574010696       30.5934381356  TIP3      110             0.0000000000
     13797       256  TIP3      H1            -15.2016244727      -12.6782527249       29.9106935901  TIP3      110             0.0000000000
     13798       256  TIP3      H2            -13.8770558501      -13.1880314647       30.3482835439  TIP3      110             0.0000000000
     13799       257  TIP3      OH2           -26.6926288686      -29.3362840198       29.4535251802  TIP3      111             0.0000000000
     13800       257  TIP3      H1            -27.2627777563      -29.0409963913       28.7061887907  TIP3      111             0.0000000000
     13801       257  TIP3      H2            -26.5554687481      -30.2660229605       29.2016622509  TIP3      111             0.0000000000
     13802       258  TIP3      OH2           -28.4110452147      -14.8464231956       25.8463183947  TIP3      112             0.0000000000
     13803       258  TIP3      H1            -29.3372466816      -14.8804559937       26.1027310137  TIP3      112             0.0000000000
     13804       258  TIP3      H2            -28.4617356651      -14.3700833691       24.9863392490  TIP3      112             0.0000000000
     13805       259  TIP3      OH2           -28.7156213715      -12.2834997952       37.3907339806  TIP3      113             0.0000000000
     13806       259  TIP3      H1            -28.1850473224      -12.4241908495       38.1995283966  TIP3      113             0.0000000000
     13807       259  TIP3      H2            -28.8405023884      -13.1869396675       37.0885404087  TIP3      113             0.0000000000
     13808       260  TIP3      OH2           -24.6760756607      -13.5107427009       38.4836407395  TIP3      114             0.0000000000
     13809       260  TIP3      H1            -23.7767798573      -13.8776362824       38.5208165453  TIP3      114             0.0000000000
     13810       260  TIP3      H2            -24.9518322956      -13.8396880263       37.6043559414  TIP3      114             0.0000000000
     13811       261  TIP3      OH2           -20.0825627743      -14.0279416673       20.2968403073  TIP3      115             0.0000000000
     13812       261  TIP3      H1            -20.7501739582      -14.7101746323       20.1332741493  TIP3      115             0.0000000000
     13813       261  TIP3      H2            -19.2284914319      -14.3869502038       20.0144458795  TIP3      115             0.0000000000
     13814       262  TIP3      OH2           -18.1677093431      -14.7159850080       37.4635887887  TIP3      116             0.0000000000
     13815       262  TIP3      H1            -18.3915077612      -15.6288244907       37.7494881268  TIP3      116             0.0000000000
     13816       262  TIP3      H2            -17.2956452502      -14.6316265380       37.9179842130  TIP3      116             0.0000000000
     13817       263  TIP3      OH2           -29.0365245737      -19.5904664815       38.3142598801  TIP3      117             0.0000000000
     13818       263  TIP3      H1            -29.0243879438      -20.3746881997       37.7237252228  TIP3      117             0.0000000000
     13819       263  TIP3      H2            -29.8818022005      -19.7303228052       38.7682791918  TIP3      117             0.0000000000
     13820       264  TIP3      OH2           -22.6235757266      -18.6191885300       37.1199431286  TIP3      118             0.0000000000
     13821       264  TIP3      H1            -22.9442534293      -18.0699759992       36.3672566149  TIP3      118             0.0000000000
     13822       264  TIP3      H2            -22.7386744191      -19.5523801785       36.8198602833  TIP3      118             0.0000000000
     13823       265  TIP3      OH2           -16.9566734740      -18.7756058857       35.0703081689  TIP3      119             0.0000000000
     13824       265  TIP3      H1            -16.0889256557      -18.3222775668       35.1241419891  TIP3      119             0.0000000000
     13825       265  TIP3      H2            -17.4946719352      -17.9757156138       35.2251826983  TIP3      119             0.0000000000
     13826       266  TIP3      OH2           -27.9699240911      -21.8817107817       37.4163251863  TIP3      120             0.0000000000
     13827       266  TIP3      H1            -27.5357794380      -22.7388769647       37.4872100281  TIP3      120             0.0000000000
     13828       266  TIP3      H2            -27.9347460141      -21.6167281631       38.3481269124  TIP3      120             0.0000000000
     13829       267  TIP3      OH2           -23.4965202595      -20.4964119538       23.6364475042  TIP3      121             0.0000000000
     13830       267  TIP3      H1            -24.3652612215      -20.6644493756       24.0637544135  TIP3      121             0.0000000000
     13831       267  TIP3      H2            -23.5799454000      -21.0850355590       22.8764868612  TIP3      121             0.0000000000
     13832       268  TIP3      OH2           -24.4060157550      -22.6676879018       34.4347700408  TIP3      122             0.0000000000
     13833       268  TIP3      H1            -25.1252542942      -22.0597264115       34.7211140286  TIP3      122             0.0000000000
     13834       268  TIP3      H2            -23.7841027178      -22.0302797795       34.0097945245  TIP3      122             0.0000000000
     13835       269  TIP3      OH2           -18.9892351658      -19.5855489428       38.1685487814  TIP3      123             0.0000000000
     13836       269  TIP3      H1            -18.4719726849      -19.9179281988       37.4139303965  TIP3      123             0.0000000000
     13837       269  TIP3      H2            -18.9001753281      -20.3093548776       38.8102316459  TIP3      123             0.0000000000
     13838       270  TIP3      OH2           -23.2809282507      -24.9011531528       35.4648520187  TIP3      124             0.0000000000
     13839       270  TIP3      H1            -23.3905218822      -25.5858122561       34.7721617834  TIP3      124             0.0000000000
     13840       270  TIP3      H2            -23.4911814916      -24.0768341024       34.9608759478  TIP3      124             0.0000000000
     13841       271  TIP3      OH2           -23.1361345803      -26.7071604103       33.4939159257  TIP3      125             0.0000000000
     13842       271  TIP3      H1            -22.4022569396      -26.2484568314       33.0289114839  TIP3      125             0.0000000000
     13843       271  TIP3      H2            -23.8770623111      -26.5351614294       32.8844012679  TIP3      125             0.0000000000
     13844       272  TIP3      OH2           -22.4397181749      -21.0549981559       33.4373642537  TIP3      126             0.0000000000
     13845       272  TIP3      H1            -21.4935275138      -20.8602377248       33.3569460698  TIP3      126             0.0000000000
     13846       272  TIP3      H2            -22.8422948560      -20.2512685106       33.0455753583  TIP3      126             0.0000000000
     13847       273  TIP3      OH2           -18.3252433870      -23.2876721627       38.5823990978  TIP3      127             0.0000000000
     13848       273  TIP3      H1            -18.0997590174      -24.0837330632       39.1093908916  TIP3      127             0.0000000000
     13849       273  TIP3      H2            -17.7131799419      -23.4069396055       37.8343127663  TIP3      127             0.0000000000
     13850       274  TIP3      OH2           -16.2499338308      -20.3843054469       37.1539288140  TIP3      128             0.0000000000
     13851       274  TIP3      H1            -16.5455790362      -19.9085231064       36.3530143483  TIP3      128             0.0000000000
     13852       274  TIP3      H2            -15.3476806131      -20.6768806844       36.9200300710  TIP3      128             0.0000000000
     13853       275  TIP3      OH2           -25.2211257997      -24.4706947874       37.6330936439  TIP3      129             0.0000000000
     13854       275  TIP3      H1            -25.9759278797      -25.1031358003       37.5901769707  TIP3      129             0.0000000000
     13855       275  TIP3      H2            -24.8135971730      -24.5833922707       36.7551126730  TIP3      129             0.0000000000
     13856       276  TIP3      OH2           -22.7847903058      -29.0702128369       34.7141964278  TIP3      130             0.0000000000
     13857       276  TIP3      H1            -22.9907398230      -28.1409845314       34.4450151733  TIP3      130             0.0000000000
     13858       276  TIP3      H2            -23.6488093510      -29.4970542795       34.6265218861  TIP3      130             0.0000000000
     13859       277  TIP3      OH2           -21.3841868799      -24.7581360561       37.5811835964  TIP3      131             0.0000000000
     13860       277  TIP3      H1            -21.9166657524      -25.1278075712       38.3111403686  TIP3      131             0.0000000000
     13861       277  TIP3      H2            -21.9832695166      -24.9230130552       36.8212382576  TIP3      131             0.0000000000
     13862       278  TIP3      OH2           -18.3564392082      -25.5574312708       36.8016241917  TIP3      132             0.0000000000
     13863       278  TIP3      H1            -19.0663568541      -25.9750574730       37.3119682832  TIP3      132             0.0000000000
     13864       278  TIP3      H2            -17.5561178159      -25.9494632423       37.2292926990  TIP3      132             0.0000000000
     13865       279  TIP3      OH2           -16.5411545323      -26.6540490942       38.3057551916  TIP3      133             0.0000000000
     13866       279  TIP3      H1            -16.8076314262      -27.6087078308       38.2905676896  TIP3      133             0.0000000000
     13867       279  TIP3      H2            -16.9598226925      -26.3144854890       39.1330478281  TIP3      133             0.0000000000
     13868       280  TIP3      OH2           -27.1491090968      -26.4095737384       37.6134723234  TIP3      134             0.0000000000
     13869       280  TIP3      H1            -27.3585751921      -27.1813861308       37.0516262021  TIP3      134             0.0000000000
     13870       280  TIP3      H2            -27.4397773612      -26.7290493360       38.5025455121  TIP3      134             0.0000000000
     13871       281  TIP3      OH2           -22.3133113867      -29.7197254833       37.2892661725  TIP3      135             0.0000000000
     13872       281  TIP3      H1            -21.3592307422      -29.8890802334       37.2696491589  TIP3      135             0.0000000000
     13873       281  TIP3      H2            -22.4299057344      -29.3541713042       36.3842115617  TIP3      135             0.0000000000
     13874       282  TIP3      OH2           -22.1999880288      -28.2554447055       39.5943647135  TIP3      136             0.0000000000
     13875       282  TIP3      H1            -22.4028300104      -28.7051285586       38.7532235941  TIP3      136             0.0000000000
     13876       282  TIP3      H2            -22.8025503480      -27.4837666172       39.5233595988  TIP3      136             0.0000000000
     13877       283  TIP3      OH2            30.0498670869      -12.0642991335       25.9668928890  TIP3      137             0.0000000000
     13878       283  TIP3      H1             29.3119222932      -12.6778081222       25.8201747354  TIP3      137             0.0000000000
     13879       283  TIP3      H2             30.3728355345      -12.3496475120       26.8591158964  TIP3      137             0.0000000000
     13880       284  TIP3      OH2           -29.4514443799      -13.0037945712       28.4433598911  TIP3      138             0.0000000000
     13881       284  TIP3      H1            -29.7013961857      -13.9093601987       28.7308743131  TIP3      138             0.0000000000
     13882       284  TIP3      H2            -29.0064006679      -12.6562303265       29.2459112968  TIP3      138             0.0000000000
     13883       285  TIP3      OH2           -11.7761124647      -12.6805647396       30.7669897559  TIP3      139             0.0000000000
     13884       285  TIP3      H1            -11.9112857756      -12.6623771432       31.7314602916  TIP3      139             0.0000000000
     13885       285  TIP3      H2            -11.3100723402      -11.8395185089       30.6434926630  TIP3      139             0.0000000000
     13886       286  TIP3      OH2           -12.3262189165      -13.2753858622       33.9796001957  TIP3      140             0.0000000000
     13887       286  TIP3      H1            -12.7825050273      -14.0188014359       33.5225261322  TIP3      140             0.0000000000
     13888       286  TIP3      H2            -11.9514989114      -13.7480082046       34.7527705574  TIP3      140             0.0000000000
     13889       287  TIP3      OH2           -13.5632076999      -17.4094843694       38.7832463858  TIP3      141             0.0000000000
     13890       287  TIP3      H1            -14.3946307836      -17.1799832500       39.2547111886  TIP3      141             0.0000000000
     13891       287  TIP3      H2            -13.1103155637      -16.5312279815       38.8192431162  TIP3      141             0.0000000000
     13892       288  TIP3      OH2           -12.6804463248      -18.7521296320       24.4560546493  TIP3      142             0.0000000000
     13893       288  TIP3      H1            -11.8465855403      -18.8662122036       23.9846858673  TIP3      142             0.0000000000
     13894       288  TIP3      H2            -12.8468478849      -19.6089599775       24.8852263516  TIP3      142             0.0000000000
     13895       289  TIP3      OH2           -12.4750453898      -20.4352232296       26.5224163395  TIP3      143             0.0000000000
     13896       289  TIP3      H1            -13.2402806174      -21.0343294031       26.3405786804  TIP3      143             0.0000000000
     13897       289  TIP3      H2            -12.1051764243      -20.8899059535       27.2956952775  TIP3      143             0.0000000000
     13898       290  TIP3      OH2           -12.8336776441      -18.3035575074       30.7363898470  TIP3      144             0.0000000000
     13899       290  TIP3      H1            -12.0368659134      -18.8774007917       30.6621705452  TIP3      144             0.0000000000
     13900       290  TIP3      H2            -12.4147569123      -17.4267937782       30.6428303402  TIP3      144             0.0000000000
     13901       291  TIP3      OH2           -13.8527412273      -15.3395832130       33.2618686629  TIP3      145             0.0000000000
     13902       291  TIP3      H1            -14.6453130466      -14.9740637625       33.6834502326  TIP3      145             0.0000000000
     13903       291  TIP3      H2            -14.2059461969      -15.6660672134       32.3933359373  TIP3      145             0.0000000000
     13904       292  TIP3      OH2           -14.2732890661      -22.4032566783       26.5982066774  TIP3      146             0.0000000000
     13905       292  TIP3      H1            -14.7378801215      -23.2572481098       26.5352685519  TIP3      146             0.0000000000
     13906       292  TIP3      H2            -14.5247834051      -22.1209274380       27.5108625235  TIP3      146             0.0000000000
     13907       293  TIP3      OH2           -29.3587708108      -20.0353924813       30.5746116137  TIP3      147             0.0000000000
     13908       293  TIP3      H1            -29.3457208137      -20.4320589407       29.6883821588  TIP3      147             0.0000000000
     13909       293  TIP3      H2            -28.4213288066      -20.1536778641       30.8541447714  TIP3      147             0.0000000000
     13910       294  TIP3      OH2           -13.3238014321      -20.6057926566       36.4648920968  TIP3      148             0.0000000000
     13911       294  TIP3      H1            -12.9108402372      -21.5121417502       36.4788185697  TIP3      148             0.0000000000
     13912       294  TIP3      H2            -12.5971825938      -20.0404778230       36.1383637468  TIP3      148             0.0000000000
     13913       295  TIP3      OH2           -12.5626348928      -23.0642605761       36.9616771598  TIP3      149             0.0000000000
     13914       295  TIP3      H1            -13.4755194866      -23.4338686484       36.8676786702  TIP3      149             0.0000000000
     13915       295  TIP3      H2            -11.9879041595      -23.8718794382       36.9854689647  TIP3      149             0.0000000000
     13916       296  TIP3      OH2           -13.9328297067      -26.5488846070       20.5417809963  TIP3      150             0.0000000000
     13917       296  TIP3      H1            -13.7703635854      -27.4519443125       20.8533779053  TIP3      150             0.0000000000
     13918       296  TIP3      H2            -14.6773401919      -26.7529628899       19.9582535795  TIP3      150             0.0000000000
     13919       297  TIP3      OH2           -14.9160614925      -24.6349938121       24.9601397256  TIP3      151             0.0000000000
     13920       297  TIP3      H1            -14.6862961870      -25.5894336177       25.0402299355  TIP3      151             0.0000000000
     13921       297  TIP3      H2            -14.0394961951      -24.2610533717       24.8159296090  TIP3      151             0.0000000000
     13922       298  TIP3      OH2           -13.8451328295      -24.0827055865       30.7729184671  TIP3      152             0.0000000000
     13923       298  TIP3      H1            -12.8622623407      -23.9681717738       30.6914184841  TIP3      152             0.0000000000
     13924       298  TIP3      H2            -13.9503781607      -23.7246181189       31.6754123357  TIP3      152             0.0000000000
     13925       299  TIP3      OH2           -14.1406468192      -23.2934590094       33.4734812593  TIP3      153             0.0000000000
     13926       299  TIP3      H1            -15.0802181104      -23.0311519911       33.4144292059  TIP3      153             0.0000000000
     13927       299  TIP3      H2            -13.6921158267      -22.4245936748       33.5184235918  TIP3      153             0.0000000000
     13928       300  TIP3      OH2           -28.9566901478      -24.9280583149       36.2565252869  TIP3      154             0.0000000000
     13929       300  TIP3      H1            -28.2384333862      -25.3031575051       36.8090735584  TIP3      154             0.0000000000
     13930       300  TIP3      H2            -29.7320052203      -25.1377264090       36.8236028458  TIP3      154             0.0000000000
     13931       301  TIP3      OH2           -11.4171949786      -29.1268114406       38.6753287274  TIP3      155             0.0000000000
     13932       301  TIP3      H1            -11.7651336203      -29.8871673225       38.1670973961  TIP3      155             0.0000000000
     13933       301  TIP3      H2            -11.4277671900      -28.4483271222       37.9656038778  TIP3      155             0.0000000000
     13934       302  TIP3      OH2           -14.1978092551      -27.2028469755       25.0806424229  TIP3      156             0.0000000000
     13935       302  TIP3      H1            -13.9813765077      -27.5326109681       25.9753279874  TIP3      156             0.0000000000
     13936       302  TIP3      H2            -14.0553516919      -28.0042896905       24.5416115772  TIP3      156             0.0000000000
     13937       303  TIP3      OH2           -28.7267262439      -26.6696156635       29.6163183254  TIP3      157             0.0000000000
     13938       303  TIP3      H1            -28.8437697048      -27.1335203146       30.4616159505  TIP3      157             0.0000000000
     13939       303  TIP3      H2            -28.0160285014      -26.0382550721       29.7813688152  TIP3      157             0.0000000000
     13940       304  TIP3      OH2           -29.9369275680      -23.6553725304       30.7704353802  TIP3      158             0.0000000000
     13941       304  TIP3      H1            -29.4523262700      -23.5667587264       29.9276235941  TIP3      158             0.0000000000
     13942       304  TIP3      H2            -29.1750222652      -23.6673496778       31.3760171158  TIP3      158             0.0000000000
     13943       305  TIP3      OH2           -12.3078826946      -27.2611403818       36.8645888923  TIP3      159             0.0000000000
     13944       305  TIP3      H1            -13.0431181818      -26.9064047509       37.4206341975  TIP3      159             0.0000000000
     13945       305  TIP3      H2            -12.7671339794      -27.8108821808       36.1931671524  TIP3      159             0.0000000000
     13946       306  TIP3      OH2           -11.3113761375      -28.1501742208       21.5164010372  TIP3      160             0.0000000000
     13947       306  TIP3      H1            -11.8790778737      -28.0887330101       20.7298451337  TIP3      160             0.0000000000
     13948       306  TIP3      H2            -11.6073197764      -27.3550703901       21.9855970234  TIP3      160             0.0000000000
     13949       307  TIP3      OH2            30.2069203408      -27.8270247280       24.7394797904  TIP3      161             0.0000000000
     13950       307  TIP3      H1             29.2917941494      -27.5172337634       24.8004057039  TIP3      161             0.0000000000
     13951       307  TIP3      H2             30.6818285589      -26.9763640086       24.6049128032  TIP3      161             0.0000000000
     13952       308  TIP3      OH2           -14.8228565727      -12.7167032197       26.8655399774  TIP3      162             0.0000000000
     13953       308  TIP3      H1            -14.2984842135      -12.7085087340       26.0429915028  TIP3      162             0.0000000000
     13954       308  TIP3      H2            -14.3846081257      -12.0614731099       27.4320621344  TIP3      162             0.0000000000
     13955       309  TIP3      OH2            30.4911714435      -28.5081700041       32.8323724416  TIP3      163             0.0000000000
     13956       309  TIP3      H1             29.9681917598      -29.3255467557       32.8858468758  TIP3      163             0.0000000000
     13957       309  TIP3      H2             29.9884055084      -27.8828075743       33.3956739116  TIP3      163             0.0000000000
     13958       310  TIP3      OH2           -28.0098211513      -15.7211000925       37.0500708935  TIP3      164             0.0000000000
     13959       310  TIP3      H1            -28.5681821252      -16.0271220348       36.3115485690  TIP3      164             0.0000000000
     13960       310  TIP3      H2            -28.6037274490      -15.8508646776       37.8062250372  TIP3      164             0.0000000000
     13961       311  TIP3      OH2           -24.9678422351      -14.0447501685       33.8562220071  TIP3      165             0.0000000000
     13962       311  TIP3      H1            -25.0838144946      -13.1545962415       33.4747814088  TIP3      165             0.0000000000
     13963       311  TIP3      H2            -24.0022949101      -14.1655314905       33.7146204977  TIP3      165             0.0000000000
     13964       312  TIP3      OH2           -20.4500013171      -12.7296542493       36.0944290135  TIP3      166             0.0000000000
     13965       312  TIP3      H1            -20.1919643832      -12.8771362455       37.0195135816  TIP3      166             0.0000000000
     13966       312  TIP3      H2            -19.5706625824      -12.5280723951       35.7298876603  TIP3      166             0.0000000000
     13967       313  TIP3      OH2           -18.1165973388      -11.3245404407       35.7924888102  TIP3      167             0.0000000000
     13968       313  TIP3      H1            -17.3370843278      -11.8952910010       35.7568324967  TIP3      167             0.0000000000
     13969       313  TIP3      H2            -18.0517369284      -10.9369620628       36.6880685424  TIP3      167             0.0000000000
     13970       314  TIP3      OH2           -13.2093676200      -29.0974271541       34.8503118234  TIP3      168             0.0000000000
     13971       314  TIP3      H1            -13.7961501394      -28.6989710653       34.1799415441  TIP3      168             0.0000000000
     13972       314  TIP3      H2            -12.8868765644      -29.8594086804       34.3420406512  TIP3      168             0.0000000000
     13973       315  TIP3      OH2           -27.4930274501      -11.0839894759       33.7744846273  TIP3      169             0.0000000000
     13974       315  TIP3      H1            -28.2015213408      -10.4636495193       33.4731672217  TIP3      169             0.0000000000
     13975       315  TIP3      H2            -27.4801592340      -10.8785165236       34.7266721223  TIP3      169             0.0000000000
     13976       316  TIP3      OH2           -25.1854855053      -11.5527813277       32.4117601339  TIP3      170             0.0000000000
     13977       316  TIP3      H1            -26.0737349488      -11.3373885327       32.7830049174  TIP3      170             0.0000000000
     13978       316  TIP3      H2            -25.1305061322      -10.9261402374       31.6630858024  TIP3      170             0.0000000000
     13979       317  TIP3      OH2           -20.5537035125      -12.0734161529       31.8477497388  TIP3      171             0.0000000000
     13980       317  TIP3      H1            -21.1930821142      -11.5901233880       31.3018130113  TIP3      171             0.0000000000
     13981       317  TIP3      H2            -20.2557315708      -11.3432490380       32.4365559349  TIP3      171             0.0000000000
     13982       318  TIP3      OH2           -18.2931000218      -13.3159953099       33.1451887100  TIP3      172             0.0000000000
     13983       318  TIP3      H1            -19.0058174893      -12.9776676865       32.5639355820  TIP3      172             0.0000000000
     13984       318  TIP3      H2            -17.6278679073      -12.6135460744       33.0137892387  TIP3      172             0.0000000000
     13985       319  TIP3      OH2           -15.4527599698      -11.6813728084       32.8439815438  TIP3      173             0.0000000000
     13986       319  TIP3      H1            -15.4709401367      -10.7347023982       32.5685580761  TIP3      173             0.0000000000
     13987       319  TIP3      H2            -15.1685317615      -12.1185298593       32.0110507236  TIP3      173             0.0000000000
     13988       320  TIP3      OH2           -27.9362833207      -12.7614027323       30.6758191529  TIP3      174             0.0000000000
     13989       320  TIP3      H1            -27.9316685845      -13.3164504786       31.4884076464  TIP3      174             0.0000000000
     13990       320  TIP3      H2            -27.1491421632      -13.1281023731       30.2144649688  TIP3      174             0.0000000000
     13991       321  TIP3      OH2           -25.7699399330      -13.6986255189       29.3046413855  TIP3      175             0.0000000000
     13992       321  TIP3      H1            -25.4326560219      -14.6101927984       29.2473605594  TIP3      175             0.0000000000
     13993       321  TIP3      H2            -25.0039424237      -13.2865357062       29.7687205197  TIP3      175             0.0000000000
     13994       322  TIP3      OH2           -23.4183387398      -13.4140024535       30.4368686236  TIP3      176             0.0000000000
     13995       322  TIP3      H1            -22.9525387613      -14.2692221638       30.3493745279  TIP3      176             0.0000000000
     13996       322  TIP3      H2            -23.3321617593      -13.2453411160       31.3910488792  TIP3      176             0.0000000000
     13997       323  TIP3      OH2           -19.7089087218      -27.6453734190       29.7588477366  TIP3      177             0.0000000000
     13998       323  TIP3      H1            -20.4824305089      -28.2273068438       29.6429438288  TIP3      177             0.0000000000
     13999       323  TIP3      H2            -19.0996873547      -28.0201972632       29.0865059595  TIP3      177             0.0000000000
     14000       324  TIP3      OH2           -14.0563471870      -29.9687413221       29.7005444538  TIP3      178             0.0000000000
     14001       324  TIP3      H1            -13.4866579131      -29.3442497184       29.2151602578  TIP3      178             0.0000000000
     14002       324  TIP3      H2            -14.6182288610      -29.3633055100       30.2009509759  TIP3      178             0.0000000000
     14003       325  TIP3      OH2           -12.9948468297      -28.4636095400       27.2662562185  TIP3      179             0.0000000000
     14004       325  TIP3      H1            -12.4096837392      -28.9376525373       26.6459238028  TIP3      179             0.0000000000
     14005       325  TIP3      H2            -12.4578260612      -27.6671506561       27.4559137180  TIP3      179             0.0000000000
     14006       326  TIP3      OH2           -27.7700498802      -29.1262071305       26.9634251370  TIP3      180             0.0000000000
     14007       326  TIP3      H1            -28.6312209715      -29.3612135684       26.5783617837  TIP3      180             0.0000000000
     14008       326  TIP3      H2            -27.1712488572      -29.7312758428       26.4483848996  TIP3      180             0.0000000000
     14009       327  TIP3      OH2           -28.2312609047      -29.5518237941       23.0750812918  TIP3      181             0.0000000000
     14010       327  TIP3      H1            -27.4463028856      -28.9779566559       22.9925553592  TIP3      181             0.0000000000
     14011       327  TIP3      H2            -28.8461516833      -29.0228437601       23.6121663315  TIP3      181             0.0000000000
     14012       328  TIP3      OH2           -23.0198763987      -29.6022482473       26.8622889428  TIP3      182             0.0000000000
     14013       328  TIP3      H1            -22.2129441453      -29.1566910438       26.5646545357  TIP3      182             0.0000000000
     14014       328  TIP3      H2            -22.8554578376      -29.5930453661       27.8244783009  TIP3      182             0.0000000000
     14015       329  TIP3      OH2           -18.0540383396      -28.9948486398       28.0002796494  TIP3      183             0.0000000000
     14016       329  TIP3      H1            -17.1085473665      -29.0508280995       27.7165444165  TIP3      183             0.0000000000
     14017       329  TIP3      H2            -18.0226718919      -29.7589969027       28.6020498823  TIP3      183             0.0000000000
     14018       330  TIP3      OH2           -16.5518936915      -28.9708900500       23.4697956064  TIP3      184             0.0000000000
     14019       330  TIP3      H1            -17.0679968863      -28.1907020606       23.7764838009  TIP3      184             0.0000000000
     14020       330  TIP3      H2            -16.1396671403      -29.2859650668       24.2856859494  TIP3      184             0.0000000000
     14021       331  TIP3      OH2           -29.0228900729      -13.8148265859       23.3905499522  TIP3      185             0.0000000000
     14022       331  TIP3      H1            -29.9836018981      -13.8357654451       23.2964598522  TIP3      185             0.0000000000
     14023       331  TIP3      H2            -28.8708714788      -12.8671688543       23.1798549120  TIP3      185             0.0000000000
     14024       332  TIP3      OH2           -26.4417950540      -27.4384912563       22.4405319279  TIP3      186             0.0000000000
     14025       332  TIP3      H1            -26.5069205807      -27.6435548685       21.4766110692  TIP3      186             0.0000000000
     14026       332  TIP3      H2            -25.5942784109      -26.9421046661       22.4440331059  TIP3      186             0.0000000000
     14027       333  TIP3      OH2           -22.2699193229      -27.2228469648       23.8388361529  TIP3      187             0.0000000000
     14028       333  TIP3      H1            -21.8070090580      -27.6317878998       24.5889207860  TIP3      187             0.0000000000
     14029       333  TIP3      H2            -21.7879213614      -26.3830998750       23.7816139060  TIP3      187             0.0000000000
     14030       334  TIP3      OH2           -19.8052893495      -12.1257759121       22.0998713749  TIP3      188             0.0000000000
     14031       334  TIP3      H1            -18.8610009832      -12.0076853837       21.9021864814  TIP3      188             0.0000000000
     14032       334  TIP3      H2            -19.9741609310      -12.8334860282       21.4321225702  TIP3      188             0.0000000000
     14033       335  TIP3      OH2           -13.4182384821      -12.8033602199       24.6325763332  TIP3      189             0.0000000000
     14034       335  TIP3      H1            -13.4552639149      -13.7160854391       24.2853024837  TIP3      189             0.0000000000
     14035       335  TIP3      H2            -14.0867866381      -12.3620997361       24.0784663524  TIP3      189             0.0000000000
     14036       336  TIP3      OH2           -27.9318571415      -28.8495693631       36.3980994077  TIP3      190             0.0000000000
     14037       336  TIP3      H1            -28.1277171743      -29.6923685501       35.9668504081  TIP3      190             0.0000000000
     14038       336  TIP3      H2            -27.2320474617      -29.1064872960       37.0135879899  TIP3      190             0.0000000000
     14039       337  TIP3      OH2           -25.4109352672      -29.2965156948       38.4085227590  TIP3      191             0.0000000000
     14040       337  TIP3      H1            -24.6297711675      -29.2072543700       37.8409622276  TIP3      191             0.0000000000
     14041       337  TIP3      H2            -25.2360360863      -30.0876127562       38.9347717384  TIP3      191             0.0000000000
     14042       338  TIP3      OH2           -26.6874621033      -12.2008132156       20.8271359297  TIP3      192             0.0000000000
     14043       338  TIP3      H1            -27.3362511817      -12.3383181287       21.5312480934  TIP3      192             0.0000000000
     14044       338  TIP3      H2            -26.3985958504      -13.1013285043       20.6261310487  TIP3      192             0.0000000000
     14045       339  TIP3      OH2           -17.1183218111      -29.1458168892       38.0279367313  TIP3      193             0.0000000000
     14046       339  TIP3      H1            -17.0081031042      -29.8554768094       38.7002338685  TIP3      193             0.0000000000
     14047       339  TIP3      H2            -16.5915907789      -29.5061217045       37.3119611328  TIP3      193             0.0000000000
     14048       340  TIP3      OH2           -14.1469711539      -13.8498612135       36.8914021429  TIP3      194             0.0000000000
     14049       340  TIP3      H1            -14.9106139693      -13.9058729009       36.2651951219  TIP3      194             0.0000000000
     14050       340  TIP3      H2            -14.0859426672      -12.8806163482       36.9899744146  TIP3      194             0.0000000000
     14051       341  TIP3      OH2             0.6372495400      -19.8441101908       27.1300587405  TIP3      195             0.0000000000
     14052       341  TIP3      H1              1.0951397534      -19.1590855916       27.6477131281  TIP3      195             0.0000000000
     14053       341  TIP3      H2              0.0529232891      -19.2751731919       26.5869556986  TIP3      195             0.0000000000
     14054       342  TIP3      OH2            -0.4992723398      -21.2454185031       30.2937857275  TIP3      196             0.0000000000
     14055       342  TIP3      H1             -0.3437847910      -21.7623627601       31.1121650664  TIP3      196             0.0000000000
     14056       342  TIP3      H2             -1.1192011633      -21.8081254760       29.7931928219  TIP3      196             0.0000000000
     14057       343  TIP3      OH2            -8.7293654441      -21.0705464744       31.4445134469  TIP3      197             0.0000000000
     14058       343  TIP3      H1             -8.5725454131      -21.8917389296       31.9318026382  TIP3      197             0.0000000000
     14059       343  TIP3      H2             -8.1955622174      -20.4696356452       31.9969219971  TIP3      197             0.0000000000
     14060       344  TIP3      OH2             2.8494232621      -18.2218365882       29.0226163240  TIP3      198             0.0000000000
     14061       344  TIP3      H1              2.7003098524      -18.8422154792       29.7542188503  TIP3      198             0.0000000000
     14062       344  TIP3      H2              2.9263622142      -17.3611756919       29.4817832712  TIP3      198             0.0000000000
     14063       345  TIP3      OH2            -7.3672363386      -16.5747978386       29.5699529593  TIP3      199             0.0000000000
     14064       345  TIP3      H1             -7.6118228419      -17.5163553583       29.4600365993  TIP3      199             0.0000000000
     14065       345  TIP3      H2             -6.4450867513      -16.7073482340       29.8814182183  TIP3      199             0.0000000000
     14066       346  TIP3      OH2           -10.7586099911      -23.8132838531       25.6200911464  TIP3      200             0.0000000000
     14067       346  TIP3      H1            -11.0868811837      -23.1077974832       26.1887213783  TIP3      200             0.0000000000
     14068       346  TIP3      H2            -11.0276441150      -24.6092246824       26.1351272328  TIP3      200             0.0000000000
     14069       347  TIP3      OH2           -10.0640308915      -20.4587253220       28.0556670864  TIP3      201             0.0000000000
     14070       347  TIP3      H1             -9.8325583125      -21.3987983214       28.2666504152  TIP3      201             0.0000000000
     14071       347  TIP3      H2             -9.1649456493      -20.0782963539       28.0527702540  TIP3      201             0.0000000000
     14072       348  TIP3      OH2             0.2082699665      -12.7819246257       28.3967089529  TIP3      202             0.0000000000
     14073       348  TIP3      H1              0.9515177933      -13.3312160359       28.0470948035  TIP3      202             0.0000000000
     14074       348  TIP3      H2             -0.0389543074      -13.2892693702       29.1817393380  TIP3      202             0.0000000000
     14075       349  TIP3      OH2            -2.5801709035      -17.7977980430       31.3281663119  TIP3      203             0.0000000000
     14076       349  TIP3      H1             -2.1200992538      -18.1646294589       30.5552698628  TIP3      203             0.0000000000
     14077       349  TIP3      H2             -1.8238149479      -17.5281049933       31.8999380579  TIP3      203             0.0000000000
     14078       350  TIP3      OH2             6.3398401197      -26.9196047012       30.9760568087  TIP3      204             0.0000000000
     14079       350  TIP3      H1              6.3302627896      -26.3249339404       31.7614008312  TIP3      204             0.0000000000
     14080       350  TIP3      H2              6.8009294497      -26.3451609562       30.3433200128  TIP3      204             0.0000000000
     14081       351  TIP3      OH2             1.1254565160      -23.9942026051       31.4316577006  TIP3      205             0.0000000000
     14082       351  TIP3      H1              1.0834162739      -24.9511142055       31.6129416516  TIP3      205             0.0000000000
     14083       351  TIP3      H2              0.9926870196      -23.9892287675       30.4625997125  TIP3      205             0.0000000000
     14084       352  TIP3      OH2            -5.5958042330      -25.9085074110       27.8304225355  TIP3      206             0.0000000000
     14085       352  TIP3      H1             -5.4452464335      -25.1042937422       27.2866397451  TIP3      206             0.0000000000
     14086       352  TIP3      H2             -6.1728214235      -26.4379361024       27.2446286424  TIP3      206             0.0000000000
     14087       353  TIP3      OH2             1.4459927603      -25.6852505183       27.1070256277  TIP3      207             0.0000000000
     14088       353  TIP3      H1              2.0385573598      -26.2803065553       27.6210210840  TIP3      207             0.0000000000
     14089       353  TIP3      H2              2.0869395927      -25.0420370673       26.7704111131  TIP3      207             0.0000000000
     14090       354  TIP3      OH2            -9.3454211386      -22.9835848093       28.7136391217  TIP3      208             0.0000000000
     14091       354  TIP3      H1             -8.8280868406      -23.3907457590       29.4335514511  TIP3      208             0.0000000000
     14092       354  TIP3      H2             -8.9011547159      -23.4127450694       27.9529315957  TIP3      208             0.0000000000
     14093       355  TIP3      OH2            -4.7742011527      -22.0441308285       28.3781861090  TIP3      209             0.0000000000
     14094       355  TIP3      H1             -3.8331532540      -22.3124481590       28.3513209582  TIP3      209             0.0000000000
     14095       355  TIP3      H2             -5.1935823709      -22.7758628035       27.8857247215  TIP3      209             0.0000000000
     14096       356  TIP3      OH2             6.1401062123      -25.7903237287       33.4065060724  TIP3      210             0.0000000000
     14097       356  TIP3      H1              5.7966353074      -24.8756436625       33.2770970620  TIP3      210             0.0000000000
     14098       356  TIP3      H2              6.8069531169      -25.6313038292       34.0846836184  TIP3      210             0.0000000000
     14099       357  TIP3      OH2            -6.7581539873      -26.6475173367       31.7616903887  TIP3      211             0.0000000000
     14100       357  TIP3      H1             -7.1818358452      -26.0991865798       31.0708053054  TIP3      211             0.0000000000
     14101       357  TIP3      H2             -7.3339864492      -26.3972128263       32.5062902677  TIP3      211             0.0000000000
     14102       358  TIP3      OH2            -0.1556519739      -17.5716520024       25.8759880012  TIP3      212             0.0000000000
     14103       358  TIP3      H1             -0.1586684680      -17.4676218086       24.9046397483  TIP3      212             0.0000000000
     14104       358  TIP3      H2             -0.3590961747      -16.6584069533       26.1483232917  TIP3      212             0.0000000000
     14105       359  TIP3      OH2            -4.8863731009      -19.1425363268       31.8944726950  TIP3      213             0.0000000000
     14106       359  TIP3      H1             -5.3993827943      -18.4136411727       32.3034004067  TIP3      213             0.0000000000
     14107       359  TIP3      H2             -4.0612228884      -18.6499554048       31.6846973060  TIP3      213             0.0000000000
     14108       360  TIP3      OH2             3.3066659608      -26.8252439452       28.5978878799  TIP3      214             0.0000000000
     14109       360  TIP3      H1              2.8244040389      -26.6395869682       29.4247662606  TIP3      214             0.0000000000
     14110       360  TIP3      H2              4.1524040445      -26.3797120795       28.7553205445  TIP3      214             0.0000000000
     14111       361  TIP3      OH2            -7.4223316362      -24.7451615883       29.8301707551  TIP3      215             0.0000000000
     14112       361  TIP3      H1             -6.7903048797      -24.3438452129       30.4628930025  TIP3      215             0.0000000000
     14113       361  TIP3      H2             -6.8350144491      -24.8737195217       29.0515211176  TIP3      215             0.0000000000
     14114       362  TIP3      OH2            -6.0931837232      -17.0512123422       33.1382257570  TIP3      216             0.0000000000
     14115       362  TIP3      H1             -6.3515620843      -16.1917537663       32.7760382090  TIP3      216             0.0000000000
     14116       362  TIP3      H2             -6.9203699152      -17.3193382675       33.6133535430  TIP3      216             0.0000000000
     14117       363  TIP3      OH2           -10.1046092170      -17.7914654918       24.2951631122  TIP3      217             0.0000000000
     14118       363  TIP3      H1            -10.4634499904      -17.3641287250       23.4967536269  TIP3      217             0.0000000000
     14119       363  TIP3      H2             -9.8144650761      -16.9893607595       24.7916087326  TIP3      217             0.0000000000
     14120       364  TIP3      OH2             3.2676587931      -15.7758717113       30.4054266653  TIP3      218             0.0000000000
     14121       364  TIP3      H1              2.3264606029      -15.6808394600       30.6763613824  TIP3      218             0.0000000000
     14122       364  TIP3      H2              3.5305879941      -14.8509483643       30.3333909405  TIP3      218             0.0000000000
     14123       365  TIP3      OH2             4.0776309460      -27.8470734487       32.3851872862  TIP3      219             0.0000000000
     14124       365  TIP3      H1              3.3154881308      -27.3327308332       32.0682514302  TIP3      219             0.0000000000
     14125       365  TIP3      H2              4.7892881151      -27.5533773248       31.7939407947  TIP3      219             0.0000000000
     14126       366  TIP3      OH2            -3.5177447987      -29.6117445222       29.2602762199  TIP3      220             0.0000000000
     14127       366  TIP3      H1             -2.8676039410      -29.9922648853       29.8678036033  TIP3      220             0.0000000000
     14128       366  TIP3      H2             -4.2239780622      -29.2873594815       29.8609084114  TIP3      220             0.0000000000
     14129       367  TIP3      OH2             2.3217061388      -14.2694321725       27.5269809155  TIP3      221             0.0000000000
     14130       367  TIP3      H1              2.4124729954      -14.9924664782       26.8646701329  TIP3      221             0.0000000000
     14131       367  TIP3      H2              3.2011247393      -13.8413349160       27.4526626065  TIP3      221             0.0000000000
     14132       368  TIP3      OH2             3.3852652044      -16.2767676409       26.0305741720  TIP3      222             0.0000000000
     14133       368  TIP3      H1              3.3159174491      -17.0363793693       25.4182242883  TIP3      222             0.0000000000
     14134       368  TIP3      H2              3.4165119385      -16.7183081049       26.8945628461  TIP3      222             0.0000000000
     14135       369  TIP3      OH2             4.4688985765      -17.7357236868       34.7770908813  TIP3      223             0.0000000000
     14136       369  TIP3      H1              4.7192208214      -18.3709254238       34.0657884107  TIP3      223             0.0000000000
     14137       369  TIP3      H2              4.6358333803      -16.8902915599       34.3354122236  TIP3      223             0.0000000000
     14138       370  TIP3      OH2             6.3874907522      -21.2811129054       32.8325136890  TIP3      224             0.0000000000
     14139       370  TIP3      H1              5.9487433454      -20.4086934031       32.7320370587  TIP3      224             0.0000000000
     14140       370  TIP3      H2              7.0421645555      -21.1946498527       32.1048340802  TIP3      224             0.0000000000
     14141       371  TIP3      OH2             2.9237950719      -20.6272384680       25.6466832264  TIP3      225             0.0000000000
     14142       371  TIP3      H1              2.2072711035      -20.4316061962       26.2899480807  TIP3      225             0.0000000000
     14143       371  TIP3      H2              3.6291933534      -20.9597249339       26.2358851490  TIP3      225             0.0000000000
     14144       372  TIP3      OH2             2.3350549163      -22.1526791969       34.3986528990  TIP3      226             0.0000000000
     14145       372  TIP3      H1              2.4949440726      -21.3390084322       34.9046141119  TIP3      226             0.0000000000
     14146       372  TIP3      H2              1.4978784758      -21.9145246630       33.9459511970  TIP3      226             0.0000000000
     14147       373  TIP3      OH2            -5.7376291953      -19.7997829884       27.3430253364  TIP3      227             0.0000000000
     14148       373  TIP3      H1             -6.2250706093      -20.2348415816       26.6213882177  TIP3      227             0.0000000000
     14149       373  TIP3      H2             -5.2125099922      -20.5566647736       27.6844089218  TIP3      227             0.0000000000
     14150       374  TIP3      OH2            -4.6499889274      -16.8846431073       29.8168218357  TIP3      228             0.0000000000
     14151       374  TIP3      H1             -4.3059810412      -16.8244730313       28.9160679138  TIP3      228             0.0000000000
     14152       374  TIP3      H2             -3.8765496939      -17.1549892842       30.3530718562  TIP3      228             0.0000000000
     14153       375  TIP3      OH2            -5.7026952462      -21.4526640770       30.9382491305  TIP3      229             0.0000000000
     14154       375  TIP3      H1             -5.4400200115      -21.3925702462       29.9972594081  TIP3      229             0.0000000000
     14155       375  TIP3      H2             -5.2427185500      -20.6560755615       31.3020550580  TIP3      229             0.0000000000
     14156       376  TIP3      OH2             0.9293327495      -15.5393848398       31.5511062822  TIP3      230             0.0000000000
     14157       376  TIP3      H1              0.7742546907      -14.9287230965       32.2910755587  TIP3      230             0.0000000000
     14158       376  TIP3      H2              0.7353276633      -16.4035373863       31.9747056858  TIP3      230             0.0000000000
     14159       377  TIP3      OH2            -4.6239225602      -16.7517609024       35.4347422698  TIP3      231             0.0000000000
     14160       377  TIP3      H1             -5.3537932234      -16.3359844284       35.9507191916  TIP3      231             0.0000000000
     14161       377  TIP3      H2             -5.0762102310      -16.8755757303       34.5666086333  TIP3      231             0.0000000000
     14162       378  TIP3      OH2             1.6579257445      -21.3265551623       23.2899762829  TIP3      232             0.0000000000
     14163       378  TIP3      H1              1.9712185536      -21.1856080936       24.2150260931  TIP3      232             0.0000000000
     14164       378  TIP3      H2              1.9172986486      -20.4725492902       22.9139107559  TIP3      232             0.0000000000
     14165       379  TIP3      OH2            -7.8909774668      -20.4334610295       33.9750767828  TIP3      233             0.0000000000
     14166       379  TIP3      H1             -7.6256600883      -19.6249622681       34.4468946933  TIP3      233             0.0000000000
     14167       379  TIP3      H2             -8.4554515706      -20.8535491988       34.6470755813  TIP3      233             0.0000000000
     14168       380  TIP3      OH2            -0.9865604451      -14.8221353634       26.1300966478  TIP3      234             0.0000000000
     14169       380  TIP3      H1             -0.7588787130      -14.0637575936       26.6903646570  TIP3      234             0.0000000000
     14170       380  TIP3      H2             -1.7089590593      -14.4788830521       25.5860170109  TIP3      234             0.0000000000
     14171       381  TIP3      OH2            -6.5918633409      -15.1240592353       36.4574047038  TIP3      235             0.0000000000
     14172       381  TIP3      H1             -6.6094059114      -14.5842596248       35.6432957043  TIP3      235             0.0000000000
     14173       381  TIP3      H2             -7.5471083742      -15.3482032598       36.5377194218  TIP3      235             0.0000000000
     14174       382  TIP3      OH2            -7.6044006129      -20.8305691582       25.2794590101  TIP3      236             0.0000000000
     14175       382  TIP3      H1             -7.5434487302      -20.0257451934       24.7033085247  TIP3      236             0.0000000000
     14176       382  TIP3      H2             -7.8089257351      -21.5048222320       24.6227406109  TIP3      236             0.0000000000
     14177       383  TIP3      OH2           -10.5725808604      -18.5811966303       33.7209990697  TIP3      237             0.0000000000
     14178       383  TIP3      H1            -10.9908031072      -18.6498161693       32.8517309622  TIP3      237             0.0000000000
     14179       383  TIP3      H2            -10.3214685793      -19.5131591829       33.8665879809  TIP3      237             0.0000000000
     14180       384  TIP3      OH2           -11.1542311731      -15.6725797104       30.3628701231  TIP3      238             0.0000000000
     14181       384  TIP3      H1            -10.2613246891      -15.5172800667       30.7147961614  TIP3      238             0.0000000000
     14182       384  TIP3      H2            -11.6053165466      -14.8587350576       30.6347785410  TIP3      238             0.0000000000
     14183       385  TIP3      OH2             7.0023776122      -15.0936121186       36.0454790844  TIP3      239             0.0000000000
     14184       385  TIP3      H1              7.0417234391      -16.0530367878       36.2122035715  TIP3      239             0.0000000000
     14185       385  TIP3      H2              6.1625367088      -14.8551385340       36.5017132695  TIP3      239             0.0000000000
     14186       386  TIP3      OH2            -2.2911483436      -15.4220805729       35.1340827838  TIP3      240             0.0000000000
     14187       386  TIP3      H1             -2.0470982836      -14.9036976181       35.9224199632  TIP3      240             0.0000000000
     14188       386  TIP3      H2             -3.1907091208      -15.7379179300       35.3537085007  TIP3      240             0.0000000000
     14189       387  TIP3      OH2            -0.9790379507      -11.9314657064       24.3421994393  TIP3      241             0.0000000000
     14190       387  TIP3      H1             -1.1589135198      -11.7897438092       23.3935174767  TIP3      241             0.0000000000
     14191       387  TIP3      H2             -1.1840861766      -11.0584985168       24.7266176902  TIP3      241             0.0000000000
     14192       388  TIP3      OH2            -7.7713205265      -13.0459782292       26.7244938466  TIP3      242             0.0000000000
     14193       388  TIP3      H1             -7.4371667965      -13.3830638583       27.5893491940  TIP3      242             0.0000000000
     14194       388  TIP3      H2             -8.6954373759      -13.3255133710       26.7686096231  TIP3      242             0.0000000000
     14195       389  TIP3      OH2             1.6452630795      -12.1576330935       22.0233024537  TIP3      243             0.0000000000
     14196       389  TIP3      H1              2.0760683590      -12.9211336718       21.6345412869  TIP3      243             0.0000000000
     14197       389  TIP3      H2              1.7365612248      -12.3220894754       22.9900475772  TIP3      243             0.0000000000
     14198       390  TIP3      OH2             1.6176502064      -12.7697929968       24.7309168846  TIP3      244             0.0000000000
     14199       390  TIP3      H1              0.7015462039      -12.4203718385       24.7174861985  TIP3      244             0.0000000000
     14200       390  TIP3      H2              1.4272608755      -13.7141432662       24.8351012757  TIP3      244             0.0000000000
     14201       391  TIP3      OH2             4.1465360371      -23.4748646325       36.4939074771  TIP3      245             0.0000000000
     14202       391  TIP3      H1              3.5860448481      -23.0528890181       35.8134900837  TIP3      245             0.0000000000
     14203       391  TIP3      H2              3.9846087619      -24.4257194073       36.3242429860  TIP3      245             0.0000000000
     14204       392  TIP3      OH2            -8.3011795020      -17.4290263264       34.5864102226  TIP3      246             0.0000000000
     14205       392  TIP3      H1             -8.2983787027      -17.7939547919       35.4966198328  TIP3      246             0.0000000000
     14206       392  TIP3      H2             -9.2057603012      -17.6585546618       34.2698011128  TIP3      246             0.0000000000
     14207       393  TIP3      OH2            -5.6602871081      -28.9396306918       30.9288193786  TIP3      247             0.0000000000
     14208       393  TIP3      H1             -6.3708676458      -29.2469590648       30.3182827827  TIP3      247             0.0000000000
     14209       393  TIP3      H2             -6.0645079385      -28.0926785655       31.2230280441  TIP3      247             0.0000000000
     14210       394  TIP3      OH2            -1.4795419495      -28.3970020420       34.5812829317  TIP3      248             0.0000000000
     14211       394  TIP3      H1             -0.9526262638      -29.1529203690       34.2576043142  TIP3      248             0.0000000000
     14212       394  TIP3      H2             -2.3925721294      -28.7084595294       34.4595343159  TIP3      248             0.0000000000
     14213       395  TIP3      OH2             1.8126734754      -24.8107666010       34.4691081816  TIP3      249             0.0000000000
     14214       395  TIP3      H1              1.4543322663      -25.0224204232       35.3588866928  TIP3      249             0.0000000000
     14215       395  TIP3      H2              1.7987178157      -23.8295789428       34.4026967174  TIP3      249             0.0000000000
     14216       396  TIP3      OH2            -1.5336326769      -26.5178204591       21.6736647921  TIP3      250             0.0000000000
     14217       396  TIP3      H1             -2.4116003083      -26.5942458534       22.0855951592  TIP3      250             0.0000000000
     14218       396  TIP3      H2             -1.4252782021      -27.4501810396       21.3786538215  TIP3      250             0.0000000000
     14219       397  TIP3      OH2            -5.4713134002      -24.0719246014       31.7986796719  TIP3      251             0.0000000000
     14220       397  TIP3      H1             -6.2095188607      -23.8939591186       32.4003349840  TIP3      251             0.0000000000
     14221       397  TIP3      H2             -5.3719116094      -23.1807033940       31.3996582475  TIP3      251             0.0000000000
     14222       398  TIP3      OH2            -5.3994804769      -23.7673288836       26.2693972621  TIP3      252             0.0000000000
     14223       398  TIP3      H1             -6.3753911023      -23.7129414397       26.1600599671  TIP3      252             0.0000000000
     14224       398  TIP3      H2             -5.1393538211      -24.1113241202       25.3806140458  TIP3      252             0.0000000000
     14225       399  TIP3      OH2             0.5726883997      -23.0667502456       25.8619462024  TIP3      253             0.0000000000
     14226       399  TIP3      H1              0.0506600820      -22.3706841576       25.4323042496  TIP3      253             0.0000000000
     14227       399  TIP3      H2              1.0592059231      -23.4499248625       25.1118407375  TIP3      253             0.0000000000
     14228       400  TIP3      OH2            -1.1973351982      -22.4880477829       36.9503429312  TIP3      254             0.0000000000
     14229       400  TIP3      H1             -1.7112979614      -23.2989743812       37.2151303614  TIP3      254             0.0000000000
     14230       400  TIP3      H2             -0.4283709442      -22.5460387721       37.5466816210  TIP3      254             0.0000000000
     14231       401  TIP3      OH2             0.7191400031      -23.6270035583       28.7474851288  TIP3      255             0.0000000000
     14232       401  TIP3      H1              0.5461617002      -22.8189499144       28.2188393352  TIP3      255             0.0000000000
     14233       401  TIP3      H2              0.8256242485      -24.2793840817       28.0253143875  TIP3      255             0.0000000000
     14234       402  TIP3      OH2            -8.2535141375      -23.8955843732       32.8965938180  TIP3      256             0.0000000000
     14235       402  TIP3      H1             -7.8130640778      -23.3667569071       33.5833428530  TIP3      256             0.0000000000
     14236       402  TIP3      H2             -8.6557857110      -24.6406857096       33.4098937207  TIP3      256             0.0000000000
     14237       403  TIP3      OH2           -11.3132435767      -25.9630077490       27.2429419458  TIP3      257             0.0000000000
     14238       403  TIP3      H1            -10.6173397110      -26.0482578058       27.9309401188  TIP3      257             0.0000000000
     14239       403  TIP3      H2            -11.1029663145      -26.6761791953       26.5973602694  TIP3      257             0.0000000000
     14240       404  TIP3      OH2           -10.1800684853      -25.9362970122       22.6264612442  TIP3      258             0.0000000000
     14241       404  TIP3      H1             -9.7451953458      -26.5229073575       21.9775275719  TIP3      258             0.0000000000
     14242       404  TIP3      H2             -9.5780399688      -25.1928923800       22.6372639347  TIP3      258             0.0000000000
     14243       405  TIP3      OH2            -0.0717461307      -22.0731716690       32.9117255936  TIP3      259             0.0000000000
     14244       405  TIP3      H1              0.4694932917      -22.7546558940       32.4644184394  TIP3      259             0.0000000000
     14245       405  TIP3      H2             -0.6873411927      -22.6566690112       33.4261645109  TIP3      259             0.0000000000
     14246       406  TIP3      OH2            -2.7415721891      -26.4336524265       27.5506269482  TIP3      260             0.0000000000
     14247       406  TIP3      H1             -3.7127684693      -26.4386658119       27.6783911006  TIP3      260             0.0000000000
     14248       406  TIP3      H2             -2.4048519839      -26.3114757991       28.4555112945  TIP3      260             0.0000000000
     14249       407  TIP3      OH2            -8.0915100126      -24.2862434516       26.3975272695  TIP3      261             0.0000000000
     14250       407  TIP3      H1             -8.8683613044      -24.1138308139       25.8289234014  TIP3      261             0.0000000000
     14251       407  TIP3      H2             -7.8491366806      -25.2078606634       26.1355267918  TIP3      261             0.0000000000
     14252       408  TIP3      OH2            -4.9158279960      -24.2164436513       23.7301430373  TIP3      262             0.0000000000
     14253       408  TIP3      H1             -4.0993902608      -23.7060595113       23.8380606114  TIP3      262             0.0000000000
     14254       408  TIP3      H2             -5.4729815799      -23.5951726930       23.2503123335  TIP3      262             0.0000000000
     14255       409  TIP3      OH2             1.6216165664      -26.9975648742       30.9259054320  TIP3      263             0.0000000000
     14256       409  TIP3      H1              0.9404157002      -27.0059265645       31.6271875560  TIP3      263             0.0000000000
     14257       409  TIP3      H2              1.1608333916      -27.4974035744       30.2204033559  TIP3      263             0.0000000000
     14258       410  TIP3      OH2            -5.9955006373      -22.7479596701       21.0419146147  TIP3      264             0.0000000000
     14259       410  TIP3      H1             -5.5884547048      -23.5774345099       20.7656182021  TIP3      264             0.0000000000
     14260       410  TIP3      H2             -5.6635579557      -22.1651027667       20.2974714791  TIP3      264             0.0000000000
     14261       411  TIP3      OH2             4.3598354120      -11.2035342021       37.5604982576  TIP3      265             0.0000000000
     14262       411  TIP3      H1              4.6859750872      -11.0396414566       36.6511658983  TIP3      265             0.0000000000
     14263       411  TIP3      H2              5.0993374185      -10.8405063815       38.0705770415  TIP3      265             0.0000000000
     14264       412  TIP3      OH2            -8.0062225866      -18.9291242580       36.9945550470  TIP3      266             0.0000000000
     14265       412  TIP3      H1             -7.3557222662      -18.8735946192       37.7361951040  TIP3      266             0.0000000000
     14266       412  TIP3      H2             -8.8587326468      -18.7985631601       37.4563284266  TIP3      266             0.0000000000
     14267       413  TIP3      OH2            -2.1132384085      -23.2782282274       28.9505469027  TIP3      267             0.0000000000
     14268       413  TIP3      H1             -1.2548974596      -23.7424612138       29.0018895532  TIP3      267             0.0000000000
     14269       413  TIP3      H2             -2.4272424821      -23.4650513028       29.8581637391  TIP3      267             0.0000000000
     14270       414  TIP3      OH2            -7.4332499943      -26.8255379957       25.7965811571  TIP3      268             0.0000000000
     14271       414  TIP3      H1             -8.0019159366      -27.6191888030       25.9355673163  TIP3      268             0.0000000000
     14272       414  TIP3      H2             -6.9625102169      -27.0520989720       24.9759268963  TIP3      268             0.0000000000
     14273       415  TIP3      OH2            -2.4112211643      -24.4256403139       31.4412351457  TIP3      269             0.0000000000
     14274       415  TIP3      H1             -3.3654914699      -24.4845292900       31.5741742608  TIP3      269             0.0000000000
     14275       415  TIP3      H2             -2.0785180067      -24.6342937564       32.3326294422  TIP3      269             0.0000000000
     14276       416  TIP3      OH2            -2.8263584077      -18.5266988863       23.9221931489  TIP3      270             0.0000000000
     14277       416  TIP3      H1             -3.2017409594      -19.4202383427       23.8615654811  TIP3      270             0.0000000000
     14278       416  TIP3      H2             -3.1213994611      -18.2465120261       24.8198307038  TIP3      270             0.0000000000
     14279       417  TIP3      OH2             4.6576935189      -19.2973620780       32.6500621183  TIP3      271             0.0000000000
     14280       417  TIP3      H1              4.9520299602      -18.6114187443       32.0032961517  TIP3      271             0.0000000000
     14281       417  TIP3      H2              3.8126965677      -19.5761405352       32.2620198912  TIP3      271             0.0000000000
     14282       418  TIP3      OH2             1.0525741276      -26.7722132529       22.5549573663  TIP3      272             0.0000000000
     14283       418  TIP3      H1              0.1462398790      -26.5567276739       22.2446271695  TIP3      272             0.0000000000
     14284       418  TIP3      H2              1.5221472347      -25.9258456198       22.4857232605  TIP3      272             0.0000000000
     14285       419  TIP3      OH2            -1.7175873153      -18.1822479857       34.8824060641  TIP3      273             0.0000000000
     14286       419  TIP3      H1             -1.7120963911      -18.4704566912       35.8048482181  TIP3      273             0.0000000000
     14287       419  TIP3      H2             -2.0407698613      -17.2691700958       34.9688585213  TIP3      273             0.0000000000
     14288       420  TIP3      OH2             2.0809064587      -24.2318104426       23.4206424909  TIP3      274             0.0000000000
     14289       420  TIP3      H1              2.7440731983      -24.1700841857       24.1448948064  TIP3      274             0.0000000000
     14290       420  TIP3      H2              2.0352646189      -23.2926507581       23.1683377623  TIP3      274             0.0000000000
     14291       421  TIP3      OH2            -7.4938830059      -19.3090061542       29.3741875428  TIP3      275             0.0000000000
     14292       421  TIP3      H1             -6.8004446999      -19.3825794732       28.6804892105  TIP3      275             0.0000000000
     14293       421  TIP3      H2             -7.2712704114      -20.0467864364       29.9699841003  TIP3      275             0.0000000000
     14294       422  TIP3      OH2            -0.5648466909      -17.2256497356       23.1777703623  TIP3      276             0.0000000000
     14295       422  TIP3      H1             -0.8849153166      -16.2883361833       23.1996326890  TIP3      276             0.0000000000
     14296       422  TIP3      H2             -1.3591323319      -17.7083389287       23.4931357923  TIP3      276             0.0000000000
     14297       423  TIP3      OH2           -10.7750513000      -21.1740835374       34.8362359996  TIP3      277             0.0000000000
     14298       423  TIP3      H1            -10.8759447954      -21.8424708647       35.5380939513  TIP3      277             0.0000000000
     14299       423  TIP3      H2            -11.3389325113      -21.5212259114       34.1171372573  TIP3      277             0.0000000000
     14300       424  TIP3      OH2            -3.5899656578      -21.3500882771       36.4364117049  TIP3      278             0.0000000000
     14301       424  TIP3      H1             -3.8314946076      -21.9811869727       35.7506433452  TIP3      278             0.0000000000
     14302       424  TIP3      H2             -2.6644845237      -21.6214274993       36.6100707912  TIP3      278             0.0000000000
     14303       425  TIP3      OH2             1.3287283232      -15.9846172558       35.2005080451  TIP3      279             0.0000000000
     14304       425  TIP3      H1              0.4737169519      -15.7631489867       34.8139509512  TIP3      279             0.0000000000
     14305       425  TIP3      H2              1.3105227091      -15.4158453983       35.9962576341  TIP3      279             0.0000000000
     14306       426  TIP3      OH2             6.1310947481      -23.5586031850       23.6989177770  TIP3      280             0.0000000000
     14307       426  TIP3      H1              5.7934384769      -23.8992343651       22.8471121903  TIP3      280             0.0000000000
     14308       426  TIP3      H2              6.6675793263      -22.8029712449       23.3656351645  TIP3      280             0.0000000000
     14309       427  TIP3      OH2             6.9901374212      -17.8048468486       36.0512745486  TIP3      281             0.0000000000
     14310       427  TIP3      H1              6.0207796169      -17.8742864754       35.8957039163  TIP3      281             0.0000000000
     14311       427  TIP3      H2              7.3604926419      -17.9883982006       35.1495693482  TIP3      281             0.0000000000
     14312       428  TIP3      OH2             5.3278651093      -14.8457333767       23.3229802872  TIP3      282             0.0000000000
     14313       428  TIP3      H1              5.0807759727      -15.7461295854       23.5699505676  TIP3      282             0.0000000000
     14314       428  TIP3      H2              5.6380671933      -14.9465996727       22.4058673372  TIP3      282             0.0000000000
     14315       429  TIP3      OH2             2.2998119592      -20.1257745482       30.8838400364  TIP3      283             0.0000000000
     14316       429  TIP3      H1              1.3837452750      -20.4368032775       30.7301032861  TIP3      283             0.0000000000
     14317       429  TIP3      H2              2.8053207944      -20.8113488461       30.4135430661  TIP3      283             0.0000000000
     14318       430  TIP3      OH2            -5.0701854725      -15.5976096041       26.7541253540  TIP3      284             0.0000000000
     14319       430  TIP3      H1             -4.8837329297      -14.7830865944       26.2473954784  TIP3      284             0.0000000000
     14320       430  TIP3      H2             -6.0333804728      -15.5698476531       26.8011510676  TIP3      284             0.0000000000
     14321       431  TIP3      OH2            -3.7507054192      -18.0091683208       26.4271132558  TIP3      285             0.0000000000
     14322       431  TIP3      H1             -4.1395384624      -17.1231418454       26.5790790998  TIP3      285             0.0000000000
     14323       431  TIP3      H2             -4.3830211681      -18.5954873125       26.8949140792  TIP3      285             0.0000000000
     14324       432  TIP3      OH2            -3.3408734196      -13.5620514128       33.1725769026  TIP3      286             0.0000000000
     14325       432  TIP3      H1             -2.6342541586      -12.9735555508       32.8552207047  TIP3      286             0.0000000000
     14326       432  TIP3      H2             -2.8800915866      -14.0834608064       33.8619010517  TIP3      286             0.0000000000
     14327       433  TIP3      OH2            -5.5456581046      -13.3339087235       25.1710342177  TIP3      287             0.0000000000
     14328       433  TIP3      H1             -6.3456259983      -13.0772971271       25.6651328359  TIP3      287             0.0000000000
     14329       433  TIP3      H2             -4.8833926370      -12.7669239580       25.6399894464  TIP3      287             0.0000000000
     14330       434  TIP3      OH2            -0.1401147261      -17.8760411055       32.5732336024  TIP3      288             0.0000000000
     14331       434  TIP3      H1             -0.5589158870      -18.1958189029       33.4082198873  TIP3      288             0.0000000000
     14332       434  TIP3      H2              0.3683746117      -18.6475635960       32.2770727241  TIP3      288             0.0000000000
     14333       435  TIP3      OH2             3.2679325075      -13.4494085344       34.7639637130  TIP3      289             0.0000000000
     14334       435  TIP3      H1              2.3515735184      -13.7761253202       34.6853959115  TIP3      289             0.0000000000
     14335       435  TIP3      H2              3.2367762819      -12.7431865203       34.0738791756  TIP3      289             0.0000000000
     14336       436  TIP3      OH2             7.1839010361      -12.0760216755       22.0097377903  TIP3      290             0.0000000000
     14337       436  TIP3      H1              7.2050207168      -11.5483544519       21.2004778116  TIP3      290             0.0000000000
     14338       436  TIP3      H2              6.3325651066      -11.7786116655       22.3958580095  TIP3      290             0.0000000000
     14339       437  TIP3      OH2            -8.9756453733      -26.3631014086       33.7552176155  TIP3      291             0.0000000000
     14340       437  TIP3      H1             -9.8350211836      -26.3217836787       33.2986708110  TIP3      291             0.0000000000
     14341       437  TIP3      H2             -8.8852167131      -27.3050793519       33.9818790757  TIP3      291             0.0000000000
     14342       438  TIP3      OH2             3.3564927789      -18.4445751859       24.1649337267  TIP3      292             0.0000000000
     14343       438  TIP3      H1              3.2718797611      -19.2525556661       24.7071878394  TIP3      292             0.0000000000
     14344       438  TIP3      H2              4.3226641610      -18.3767086973       24.0689696161  TIP3      292             0.0000000000
     14345       439  TIP3      OH2            -9.2182368648      -14.4223264868       32.4060660232  TIP3      293             0.0000000000
     14346       439  TIP3      H1             -8.6782505863      -15.1770591885       32.6754832698  TIP3      293             0.0000000000
     14347       439  TIP3      H2             -8.9236790790      -13.7436471800       33.0359719804  TIP3      293             0.0000000000
     14348       440  TIP3      OH2            -3.1877013448      -15.8657736319       20.3672580855  TIP3      294             0.0000000000
     14349       440  TIP3      H1             -3.9538187113      -16.3192587499       19.9630582464  TIP3      294             0.0000000000
     14350       440  TIP3      H2             -3.4968664491      -15.8507059346       21.2977300640  TIP3      294             0.0000000000
     14351       441  TIP3      OH2            -4.7002071641      -16.2994492954       22.5830198433  TIP3      295             0.0000000000
     14352       441  TIP3      H1             -4.3539088582      -16.8795075326       23.2732883520  TIP3      295             0.0000000000
     14353       441  TIP3      H2             -4.5399876282      -15.3965142645       22.9374732568  TIP3      295             0.0000000000
     14354       442  TIP3      OH2            -7.4496515553      -18.7759567734       23.3182485894  TIP3      296             0.0000000000
     14355       442  TIP3      H1             -8.3587889891      -18.4515960445       23.2276118858  TIP3      296             0.0000000000
     14356       442  TIP3      H2             -7.1102427387      -18.4916405293       22.4444045781  TIP3      296             0.0000000000
     14357       443  TIP3      OH2            -0.1569108968      -26.4005345371       33.3482230636  TIP3      297             0.0000000000
     14358       443  TIP3      H1              0.6740483499      -26.1158068857       33.7836697156  TIP3      297             0.0000000000
     14359       443  TIP3      H2             -0.5216250203      -27.0392093614       34.0065536647  TIP3      297             0.0000000000
     14360       444  TIP3      OH2             0.2138860675      -26.9938556490       25.1107804168  TIP3      298             0.0000000000
     14361       444  TIP3      H1              0.4788024467      -26.6043772379       24.2612415544  TIP3      298             0.0000000000
     14362       444  TIP3      H2              0.7110172277      -26.4511775109       25.7620925638  TIP3      298             0.0000000000
     14363       445  TIP3      OH2            -1.3460842665      -14.6912974701       22.8157030339  TIP3      299             0.0000000000
     14364       445  TIP3      H1             -2.2456829496      -14.3864526017       23.0343557673  TIP3      299             0.0000000000
     14365       445  TIP3      H2             -1.2391527902      -14.3765264616       21.8965574893  TIP3      299             0.0000000000
     14366       446  TIP3      OH2            -2.1971921842      -24.6620525146       25.3793165599  TIP3      300             0.0000000000
     14367       446  TIP3      H1             -1.4427867708      -24.3150839137       25.8835460673  TIP3      300             0.0000000000
     14368       446  TIP3      H2             -2.6274645381      -25.2101381402       26.0637241075  TIP3      300             0.0000000000
     14369       447  TIP3      OH2            -1.4340872303      -23.7048508227       34.5472502945  TIP3      301             0.0000000000
     14370       447  TIP3      H1             -1.3198785422      -23.3331494073       35.4515842312  TIP3      301             0.0000000000
     14371       447  TIP3      H2             -1.0963506986      -24.6094678924       34.6186533094  TIP3      301             0.0000000000
     14372       448  TIP3      OH2            -1.6932371586      -28.4883886146       26.1675045105  TIP3      302             0.0000000000
     14373       448  TIP3      H1             -2.0663197633      -27.8381145199       26.8053734655  TIP3      302             0.0000000000
     14374       448  TIP3      H2             -0.9252346301      -27.9315992324       25.9078063360  TIP3      302             0.0000000000
     14375       449  TIP3      OH2            -4.0151947621      -13.8115127771       23.1213317437  TIP3      303             0.0000000000
     14376       449  TIP3      H1             -3.9081782069      -12.8978780267       22.7671969908  TIP3      303             0.0000000000
     14377       449  TIP3      H2             -4.6570700549      -13.6195326360       23.8469744320  TIP3      303             0.0000000000
     14378       450  TIP3      OH2             4.0272789974      -26.0651941680       35.3482694377  TIP3      304             0.0000000000
     14379       450  TIP3      H1              3.2852125772      -25.6254060336       34.8735388962  TIP3      304             0.0000000000
     14380       450  TIP3      H2              4.6611724169      -26.2283320348       34.6267488220  TIP3      304             0.0000000000
     14381       451  TIP3      OH2             3.0905880649      -22.4184097130       29.1511946785  TIP3      305             0.0000000000
     14382       451  TIP3      H1              2.2858895670      -22.9676562227       29.1807121035  TIP3      305             0.0000000000
     14383       451  TIP3      H2              3.7235446644      -22.9639976306       29.6820320700  TIP3      305             0.0000000000
     14384       452  TIP3      OH2             4.2870772291      -12.9983661674       30.9162217225  TIP3      306             0.0000000000
     14385       452  TIP3      H1              4.0915768576      -12.8438029342       29.9791272332  TIP3      306             0.0000000000
     14386       452  TIP3      H2              5.2227985466      -12.6875573169       30.9467958515  TIP3      306             0.0000000000
     14387       453  TIP3      OH2            -7.5845569872      -29.6061373209       29.1296603483  TIP3      307             0.0000000000
     14388       453  TIP3      H1             -7.8920298457      -29.1010887665       28.3467300563  TIP3      307             0.0000000000
     14389       453  TIP3      H2             -7.1485853336      -30.3348143349       28.6457389769  TIP3      307             0.0000000000
     14390       454  TIP3      OH2            -9.5605182977      -15.2384516484       25.4816423736  TIP3      308             0.0000000000
     14391       454  TIP3      H1            -10.1788482631      -14.6419728051       25.9203912659  TIP3      308             0.0000000000
     14392       454  TIP3      H2             -9.1276305704      -14.6042911702       24.8811644828  TIP3      308             0.0000000000
     14393       455  TIP3      OH2           -10.5144499848      -12.1841865169       37.1105029621  TIP3      309             0.0000000000
     14394       455  TIP3      H1             -9.9196940602      -12.4018084455       37.8668746821  TIP3      309             0.0000000000
     14395       455  TIP3      H2            -10.8749380378      -13.0661821392       36.9229765636  TIP3      309             0.0000000000
     14396       456  TIP3      OH2            -5.7315347968      -13.5808866105       38.4852839722  TIP3      310             0.0000000000
     14397       456  TIP3      H1             -4.9429160793      -14.1199883981       38.7050106022  TIP3      310             0.0000000000
     14398       456  TIP3      H2             -6.0343505140      -14.0795925333       37.6978173655  TIP3      310             0.0000000000
     14399       457  TIP3      OH2            -1.2665928912      -14.0415095489       20.1860692706  TIP3      311             0.0000000000
     14400       457  TIP3      H1             -1.9991673672      -14.6877816483       20.0150074926  TIP3      311             0.0000000000
     14401       457  TIP3      H2             -0.6157819781      -14.3075130491       19.5259746984  TIP3      311             0.0000000000
     14402       458  TIP3      OH2             0.7875054931      -14.7682352966       37.4954309282  TIP3      312             0.0000000000
     14403       458  TIP3      H1              0.4171329220      -15.5976086966       37.8946573169  TIP3      312             0.0000000000
     14404       458  TIP3      H2              1.6749299580      -14.7770511239       37.9076384961  TIP3      312             0.0000000000
     14405       459  TIP3      OH2           -10.5461264591      -18.7749449061       38.0806487704  TIP3      313             0.0000000000
     14406       459  TIP3      H1            -10.9143935552      -19.6763356342       38.0574181002  TIP3      313             0.0000000000
     14407       459  TIP3      H2            -11.0383633602      -18.3397216235       37.3425274643  TIP3      313             0.0000000000
     14408       460  TIP3      OH2            -3.7399283056      -18.7337234224       37.1158144333  TIP3      314             0.0000000000
     14409       460  TIP3      H1             -4.0026596289      -18.0807548008       36.4266272461  TIP3      314             0.0000000000
     14410       460  TIP3      H2             -3.6877171513      -19.5945717310       36.6324645554  TIP3      314             0.0000000000
     14411       461  TIP3      OH2            -0.4738027481      -17.5309373478       20.4146552614  TIP3      315             0.0000000000
     14412       461  TIP3      H1             -0.4035471318      -17.4316518012       21.3860496317  TIP3      315             0.0000000000
     14413       461  TIP3      H2             -1.4385670637      -17.4964664447       20.3150535849  TIP3      315             0.0000000000
     14414       462  TIP3      OH2             1.8982930932      -18.6921582284       35.2263135398  TIP3      316             0.0000000000
     14415       462  TIP3      H1              2.7936695764      -18.2831988116       35.2001212771  TIP3      316             0.0000000000
     14416       462  TIP3      H2              1.3965141020      -17.8491575644       35.2698930476  TIP3      316             0.0000000000
     14417       463  TIP3      OH2            -9.5149003356      -21.7570202839       37.5645224198  TIP3      317             0.0000000000
     14418       463  TIP3      H1             -8.7541221266      -22.3495695045       37.6069666611  TIP3      317             0.0000000000
     14419       463  TIP3      H2             -9.1330118625      -20.9489928010       37.9463311074  TIP3      317             0.0000000000
     14420       464  TIP3      OH2            -4.3268234667      -20.8730131582       23.1846305545  TIP3      318             0.0000000000
     14421       464  TIP3      H1             -5.2246590787      -20.6934067840       23.5058333785  TIP3      318             0.0000000000
     14422       464  TIP3      H2             -4.4461681302      -20.8325796552       22.2250759334  TIP3      318             0.0000000000
     14423       465  TIP3      OH2            -5.9120075550      -22.4257114188       34.2540032486  TIP3      319             0.0000000000
     14424       465  TIP3      H1             -6.3984992965      -21.6518636609       34.5668977957  TIP3      319             0.0000000000
     14425       465  TIP3      H2             -5.1362946794      -21.9890644949       33.8347190412  TIP3      319             0.0000000000
     14426       466  TIP3      OH2            -0.0167302665      -19.5279704352       38.3404530376  TIP3      320             0.0000000000
     14427       466  TIP3      H1              0.6862398828      -20.1415103729       38.0726778624  TIP3      320             0.0000000000
     14428       466  TIP3      H2             -0.5831217888      -20.0605911032       38.9213875022  TIP3      320             0.0000000000
     14429       467  TIP3      OH2            -4.8791405885      -24.7874793276       35.2684839070  TIP3      321             0.0000000000
     14430       467  TIP3      H1             -4.7892248242      -25.5844498256       34.7092810039  TIP3      321             0.0000000000
     14431       467  TIP3      H2             -5.0075444825      -24.0795996992       34.6027132137  TIP3      321             0.0000000000
     14432       468  TIP3      OH2            -4.3454127761      -26.7597687541       33.3001178634  TIP3      322             0.0000000000
     14433       468  TIP3      H1             -3.5930498117      -26.5364712720       32.7396347198  TIP3      322             0.0000000000
     14434       468  TIP3      H2             -5.0864534072      -26.5461204368       32.6963436084  TIP3      322             0.0000000000
     14435       469  TIP3      OH2            -3.5138048570      -20.9936804097       33.5420758312  TIP3      323             0.0000000000
     14436       469  TIP3      H1             -2.5769011478      -20.7512928720       33.4572910642  TIP3      323             0.0000000000
     14437       469  TIP3      H2             -3.9473585614      -20.2583735319       33.0758473293  TIP3      323             0.0000000000
     14438       470  TIP3      OH2             0.6941595997      -23.2995182843       38.8685086019  TIP3      324             0.0000000000
     14439       470  TIP3      H1              0.6812792079      -24.2417086673       39.1151925691  TIP3      324             0.0000000000
     14440       470  TIP3      H2              1.6477633222      -23.1127722498       38.9062723472  TIP3      324             0.0000000000
     14441       471  TIP3      OH2             2.8716949681      -20.4044563772       37.1066499547  TIP3      325             0.0000000000
     14442       471  TIP3      H1              2.4713333055      -19.8194418593       36.4336092689  TIP3      325             0.0000000000
     14443       471  TIP3      H2              3.8095729878      -20.4253699610       36.8132385627  TIP3      325             0.0000000000
     14444       472  TIP3      OH2            -6.6809154657      -24.0027316762       37.6733983514  TIP3      326             0.0000000000
     14445       472  TIP3      H1             -7.3838811534      -24.6132405772       37.3491090261  TIP3      326             0.0000000000
     14446       472  TIP3      H2             -6.1933910557      -23.7985135797       36.8590988539  TIP3      326             0.0000000000
     14447       473  TIP3      OH2            -4.0130796930      -29.3980303365       34.2327044043  TIP3      327             0.0000000000
     14448       473  TIP3      H1             -4.2913746865      -28.5408646263       33.8517988609  TIP3      327             0.0000000000
     14449       473  TIP3      H2             -4.5810020766      -30.0248286833       33.7365694273  TIP3      327             0.0000000000
     14450       474  TIP3      OH2            -2.7778194061      -24.6603166734       37.4846009020  TIP3      328             0.0000000000
     14451       474  TIP3      H1             -2.8712228816      -25.4402153677       38.0570965079  TIP3      328             0.0000000000
     14452       474  TIP3      H2             -3.3825645755      -24.9111303150       36.7631543623  TIP3      328             0.0000000000
     14453       475  TIP3      OH2             0.6671701970      -25.9309266349       36.7327098857  TIP3      329             0.0000000000
     14454       475  TIP3      H1             -0.0506944048      -26.5164368005       37.0188939524  TIP3      329             0.0000000000
     14455       475  TIP3      H2              1.3663478164      -26.1597232429       37.3902935339  TIP3      329             0.0000000000
     14456       476  TIP3      OH2             2.2561534626      -26.6065641108       38.7679233603  TIP3      330             0.0000000000
     14457       476  TIP3      H1              2.1526244540      -27.5736939885       38.5786332181  TIP3      330             0.0000000000
     14458       476  TIP3      H2              1.7306060180      -26.4803339128       39.6024346819  TIP3      330             0.0000000000
     14459       477  TIP3      OH2            -8.5850221451      -26.0764457496       37.5121394160  TIP3      331             0.0000000000
     14460       477  TIP3      H1             -8.7211860277      -26.8554871845       36.9377308712  TIP3      331             0.0000000000
     14461       477  TIP3      H2             -8.7366926536      -26.4784807372       38.4096296409  TIP3      331             0.0000000000
     14462       478  TIP3      OH2            -3.6704840510      -29.8000991339       36.8626579937  TIP3      332             0.0000000000
     14463       478  TIP3      H1             -2.7092296014      -29.7472362083       36.9662306793  TIP3      332             0.0000000000
     14464       478  TIP3      H2             -3.7517404421      -29.6031209098       35.8969640846  TIP3      332             0.0000000000
     14465       479  TIP3      OH2            -3.5692017078      -27.6732165780       38.5416687105  TIP3      333             0.0000000000
     14466       479  TIP3      H1             -3.8598501807      -28.5276225130       38.1905721009  TIP3      333             0.0000000000
     14467       479  TIP3      H2             -4.4131349658      -27.1689454007       38.6344725079  TIP3      333             0.0000000000
     14468       480  TIP3      OH2            -3.5933070397      -11.3410799148       22.1074329303  TIP3      334             0.0000000000
     14469       480  TIP3      H1             -2.6168002515      -11.2132423380       22.0502494664  TIP3      334             0.0000000000
     14470       480  TIP3      H2             -3.8357464259      -11.2574029764       21.1810071689  TIP3      334             0.0000000000
     14471       481  TIP3      OH2           -11.5668211000      -11.5697001861       26.1609654726  TIP3      335             0.0000000000
     14472       481  TIP3      H1            -12.2718629375      -12.1291267834       25.7818753600  TIP3      335             0.0000000000
     14473       481  TIP3      H2            -11.2520280686      -12.1184437554       26.9085906275  TIP3      335             0.0000000000
     14474       482  TIP3      OH2           -10.7127451583      -13.2866404024       28.2246129983  TIP3      336             0.0000000000
     14475       482  TIP3      H1            -11.3753592647      -13.4905423563       28.9189497266  TIP3      336             0.0000000000
     14476       482  TIP3      H2             -9.9840694881      -13.0020162029       28.8239930944  TIP3      336             0.0000000000
     14477       483  TIP3      OH2             6.8003153583      -11.9543390008       31.2820512212  TIP3      337             0.0000000000
     14478       483  TIP3      H1              6.9202943519      -12.1694502830       32.2241077123  TIP3      337             0.0000000000
     14479       483  TIP3      H2              7.2471695926      -12.7301572980       30.8980030768  TIP3      337             0.0000000000
     14480       484  TIP3      OH2             6.4033151083      -12.9649477864       33.8362397780  TIP3      338             0.0000000000
     14481       484  TIP3      H1              5.8970197359      -13.6251125354       33.3023431409  TIP3      338             0.0000000000
     14482       484  TIP3      H2              6.7014005699      -13.5726220478       34.5498624135  TIP3      338             0.0000000000
     14483       485  TIP3      OH2             5.2266001943      -17.3778926499       38.8698666619  TIP3      339             0.0000000000
     14484       485  TIP3      H1              4.4368668995      -17.3403624320       39.4521700720  TIP3      339             0.0000000000
     14485       485  TIP3      H2              5.6405405509      -16.5110936044       39.0887498793  TIP3      339             0.0000000000
     14486       486  TIP3      OH2             6.2788361189      -18.7374449888       24.1222317074  TIP3      340             0.0000000000
     14487       486  TIP3      H1              7.1660845916      -18.3200790116       24.1692814560  TIP3      340             0.0000000000
     14488       486  TIP3      H2              6.3198354132      -19.3835173913       24.8668578537  TIP3      340             0.0000000000
     14489       487  TIP3      OH2             6.5329511406      -20.2953086798       26.2613983300  TIP3      341             0.0000000000
     14490       487  TIP3      H1              5.8561259500      -20.9232690479       26.6058917808  TIP3      341             0.0000000000
     14491       487  TIP3      H2              7.1727001671      -20.2525654274       27.0150406986  TIP3      341             0.0000000000
     14492       488  TIP3      OH2             5.8858194075      -17.7478284421       30.8569353454  TIP3      342             0.0000000000
     14493       488  TIP3      H1              6.6782972862      -18.2966743279       30.7371382924  TIP3      342             0.0000000000
     14494       488  TIP3      H2              6.2720204560      -16.8853515390       30.6265180530  TIP3      342             0.0000000000
     14495       489  TIP3      OH2             4.9000425800      -15.2077343505       33.1511153421  TIP3      343             0.0000000000
     14496       489  TIP3      H1              4.1795061759      -14.8176127679       33.6692860680  TIP3      343             0.0000000000
     14497       489  TIP3      H2              4.4456285520      -15.5212029199       32.3500307164  TIP3      343             0.0000000000
     14498       490  TIP3      OH2             7.3432190214      -21.5487199948       22.3628065061  TIP3      344             0.0000000000
     14499       490  TIP3      H1              6.5830378325      -21.4051680348       21.7764807781  TIP3      344             0.0000000000
     14500       490  TIP3      H2              7.3581218987      -20.7387739084       22.8909937262  TIP3      344             0.0000000000
     14501       491  TIP3      OH2             5.2443804737      -23.8264941743       21.1126369572  TIP3      345             0.0000000000
     14502       491  TIP3      H1              5.8602308192      -23.6195489786       20.3603416851  TIP3      345             0.0000000000
     14503       491  TIP3      H2              4.9887886914      -24.7149743810       20.8390834468  TIP3      345             0.0000000000
     14504       492  TIP3      OH2             4.8094322352      -22.1540307526       27.0713848886  TIP3      346             0.0000000000
     14505       492  TIP3      H1              4.3965124723      -22.8654070111       26.5452833631  TIP3      346             0.0000000000
     14506       492  TIP3      H2              4.2581112866      -22.1795249818       27.8814087261  TIP3      346             0.0000000000
     14507       493  TIP3      OH2           -10.7713807231      -19.8271235745       30.5924874032  TIP3      347             0.0000000000
     14508       493  TIP3      H1            -10.5903878849      -20.2057348952       29.7051661657  TIP3      347             0.0000000000
     14509       493  TIP3      H2             -9.9252162090      -20.0739859664       31.0247282412  TIP3      347             0.0000000000
     14510       494  TIP3      OH2             5.5824077046      -20.5402765741       36.3590390976  TIP3      348             0.0000000000
     14511       494  TIP3      H1              6.0553171102      -21.3631195937       36.6466299446  TIP3      348             0.0000000000
     14512       494  TIP3      H2              6.2838427929      -20.0578610467       35.8808559581  TIP3      348             0.0000000000
     14513       495  TIP3      OH2             6.5969988422      -22.8359697825       37.3473181458  TIP3      349             0.0000000000
     14514       495  TIP3      H1              5.7011879787      -23.1068068348       37.0254956695  TIP3      349             0.0000000000
     14515       495  TIP3      H2              7.1209421392      -23.6409825759       37.1375402563  TIP3      349             0.0000000000
     14516       496  TIP3      OH2             4.0547755074      -24.2725234215       25.4094797310  TIP3      350             0.0000000000
     14517       496  TIP3      H1              4.3162797447      -25.2145980416       25.5384937021  TIP3      350             0.0000000000
     14518       496  TIP3      H2              4.8435596521      -23.9480435955       24.9205788729  TIP3      350             0.0000000000
     14519       497  TIP3      OH2             4.8055828086      -23.9607257101       30.6121097553  TIP3      351             0.0000000000
     14520       497  TIP3      H1              5.7937414516      -23.8551667362       30.6396540076  TIP3      351             0.0000000000
     14521       497  TIP3      H2              4.5994079235      -23.8658559014       31.5614651549  TIP3      351             0.0000000000
     14522       498  TIP3      OH2             4.7680935323      -23.3318177871       33.1916272773  TIP3      352             0.0000000000
     14523       498  TIP3      H1              3.8868354486      -22.9621713927       33.3933049645  TIP3      352             0.0000000000
     14524       498  TIP3      H2              5.3016706239      -22.4975849221       33.0969645450  TIP3      352             0.0000000000
     14525       499  TIP3      OH2           -10.8253405217      -25.0447669442       36.4777252435  TIP3      353             0.0000000000
     14526       499  TIP3      H1             -9.9572939193      -25.2197635432       36.8911918521  TIP3      353             0.0000000000
     14527       499  TIP3      H2            -11.3017492256      -25.8776020968       36.6916842537  TIP3      353             0.0000000000
     14528       500  TIP3      OH2             7.7052948138      -29.0714097612       38.6692748576  TIP3      354             0.0000000000
     14529       500  TIP3      H1              7.3504849231      -29.8796726401       38.2455975324  TIP3      354             0.0000000000
     14530       500  TIP3      H2              7.5076305308      -28.3894933238       37.9908824053  TIP3      354             0.0000000000
     14531       501  TIP3      OH2             4.5424172216      -26.9195111225       25.4551008517  TIP3      355             0.0000000000
     14532       501  TIP3      H1              4.8101284365      -27.6238253189       26.0752559313  TIP3      355             0.0000000000
     14533       501  TIP3      H2              3.9153025051      -27.4064385989       24.8803235899  TIP3      355             0.0000000000
     14534       502  TIP3      OH2            -9.7330038254      -26.3184496827       29.4457136237  TIP3      356             0.0000000000
     14535       502  TIP3      H1             -9.5564759992      -27.1773659882       29.8480469079  TIP3      356             0.0000000000
     14536       502  TIP3      H2             -8.9053400277      -25.8163655013       29.6117650047  TIP3      356             0.0000000000
     14537       503  TIP3      OH2           -11.2166684479      -23.8194344811       30.6269240839  TIP3      357             0.0000000000
     14538       503  TIP3      H1            -10.7888492974      -23.8574599536       29.7501621381  TIP3      357             0.0000000000
     14539       503  TIP3      H2            -10.6594223702      -23.1860343146       31.1022831703  TIP3      357             0.0000000000
     14540       504  TIP3      OH2             6.5053442280      -27.1684955718       36.9658816633  TIP3      358             0.0000000000
     14541       504  TIP3      H1              5.8475791662      -26.7877925828       37.5989325600  TIP3      358             0.0000000000
     14542       504  TIP3      H2              5.9146357881      -27.5033964799       36.2609938226  TIP3      358             0.0000000000
     14543       505  TIP3      OH2             6.5807110953      -27.6673670752       21.4398883198  TIP3      359             0.0000000000
     14544       505  TIP3      H1              7.2469587490      -28.2774708043       21.0981455774  TIP3      359             0.0000000000
     14545       505  TIP3      H2              7.0806213197      -26.8558188046       21.6079888586  TIP3      359             0.0000000000
     14546       506  TIP3      OH2           -11.3500427572      -27.3024497904       24.9686000621  TIP3      360             0.0000000000
     14547       506  TIP3      H1            -12.2752240934      -27.0521038839       24.7774993594  TIP3      360             0.0000000000
     14548       506  TIP3      H2            -10.9267968114      -27.0838799173       24.1136680114  TIP3      360             0.0000000000
     14549       507  TIP3      OH2             4.5585462952      -12.6966489957       27.6277449182  TIP3      361             0.0000000000
     14550       507  TIP3      H1              4.8461721958      -12.8805560270       26.7021988827  TIP3      361             0.0000000000
     14551       507  TIP3      H2              4.3506394942      -11.7518633251       27.5939019587  TIP3      361             0.0000000000
     14552       508  TIP3      OH2           -11.3759872703      -28.3857930417       32.7317135860  TIP3      362             0.0000000000
     14553       508  TIP3      H1            -11.5708306119      -28.0498645906       33.6221841183  TIP3      362             0.0000000000
     14554       508  TIP3      H2            -11.8133280927      -27.7267556229       32.1602211169  TIP3      362             0.0000000000
     14555       509  TIP3      OH2            -9.1897115020      -15.7021386310       37.0093000099  TIP3      363             0.0000000000
     14556       509  TIP3      H1            -10.0163601551      -15.2254640864       36.8163694403  TIP3      363             0.0000000000
     14557       509  TIP3      H2             -9.2589319393      -15.9029047977       37.9488876136  TIP3      363             0.0000000000
     14558       510  TIP3      OH2            -6.1428345227      -14.1692706848       33.8577389575  TIP3      364             0.0000000000
     14559       510  TIP3      H1             -6.2125189290      -13.2739503765       33.4523195634  TIP3      364             0.0000000000
     14560       510  TIP3      H2             -5.1929861353      -14.3017236112       33.7127184848  TIP3      364             0.0000000000
     14561       511  TIP3      OH2            -1.9223740723      -12.8058597540       36.2600429724  TIP3      365             0.0000000000
     14562       511  TIP3      H1             -1.6331710292      -13.0109668120       37.1736775200  TIP3      365             0.0000000000
     14563       511  TIP3      H2             -1.1054905704      -12.3931587276       35.9029245653  TIP3      365             0.0000000000
     14564       512  TIP3      OH2             0.2440555114      -11.2460273521       35.6859975901  TIP3      366             0.0000000000
     14565       512  TIP3      H1              1.0296915831      -11.4489851759       35.1476167796  TIP3      366             0.0000000000
     14566       512  TIP3      H2              0.6093799382      -10.9483964546       36.5414557637  TIP3      366             0.0000000000
     14567       513  TIP3      OH2             5.5844598160      -29.0463632328       34.8298731979  TIP3      367             0.0000000000
     14568       513  TIP3      H1              4.9745631536      -28.4257901241       34.3882771459  TIP3      367             0.0000000000
     14569       513  TIP3      H2              5.6166997393      -29.7317655581       34.1462994372  TIP3      367             0.0000000000
     14570       514  TIP3      OH2            -8.7559955920      -11.1726139842       33.5243429656  TIP3      368             0.0000000000
     14571       514  TIP3      H1             -9.5180825971      -10.6499703153       33.2013119509  TIP3      368             0.0000000000
     14572       514  TIP3      H2             -8.8841562942      -11.0451673165       34.4727393455  TIP3      368             0.0000000000
     14573       515  TIP3      OH2            -6.4478433892      -11.8924211369       32.4230711241  TIP3      369             0.0000000000
     14574       515  TIP3      H1             -7.2612653205      -11.4671232882       32.7954356945  TIP3      369             0.0000000000
     14575       515  TIP3      H2             -6.4005163535      -11.4695869913       31.5500284137  TIP3      369             0.0000000000
     14576       516  TIP3      OH2            -1.4458041701      -12.1080410282       31.5578153260  TIP3      370             0.0000000000
     14577       516  TIP3      H1             -2.0856237898      -11.6755917452       30.9590469495  TIP3      370             0.0000000000
     14578       516  TIP3      H2             -1.2918698655      -11.3855378411       32.2171245204  TIP3      370             0.0000000000
     14579       517  TIP3      OH2             0.7205858348      -13.2331854058       33.1610766075  TIP3      371             0.0000000000
     14580       517  TIP3      H1              0.0196669836      -13.0308091280       32.5095188306  TIP3      371             0.0000000000
     14581       517  TIP3      H2              1.3672352659      -12.5308600620       32.9544445312  TIP3      371             0.0000000000
     14582       518  TIP3      OH2             2.8908241426      -11.5633544753       32.8440931903  TIP3      372             0.0000000000
     14583       518  TIP3      H1              3.0824626429      -10.6190453028       32.6641963362  TIP3      372             0.0000000000
     14584       518  TIP3      H2              3.3495797435      -11.9440779096       32.0619441775  TIP3      372             0.0000000000
     14585       519  TIP3      OH2            -8.9693809903      -12.7335403116       30.1979200467  TIP3      373             0.0000000000
     14586       519  TIP3      H1             -9.1975410134      -13.3425116908       30.9318095686  TIP3      373             0.0000000000
     14587       519  TIP3      H2             -8.0891237642      -13.0923757534       29.9369080329  TIP3      373             0.0000000000
     14588       520  TIP3      OH2            -6.8605332694      -13.8459188393       29.1125782289  TIP3      374             0.0000000000
     14589       520  TIP3      H1             -6.9458914309      -14.7997450739       29.3527680603  TIP3      374             0.0000000000
     14590       520  TIP3      H2             -6.0550773642      -13.6196808084       29.6358583722  TIP3      374             0.0000000000
     14591       521  TIP3      OH2            -4.7059786032      -13.7731764940       30.5683125274  TIP3      375             0.0000000000
     14592       521  TIP3      H1             -4.0987359271      -14.5090771988       30.3961445656  TIP3      375             0.0000000000
     14593       521  TIP3      H2             -4.3927092570      -13.4269214737       31.4225341287  TIP3      375             0.0000000000
     14594       522  TIP3      OH2            -0.9965000223      -27.1828863299       29.6504397569  TIP3      376             0.0000000000
     14595       522  TIP3      H1             -1.6729694464      -27.7207118191       30.0632471368  TIP3      376             0.0000000000
     14596       522  TIP3      H2             -0.6682592956      -27.7421492962       28.9288895559  TIP3      376             0.0000000000
     14597       523  TIP3      OH2             4.3867656002      -29.7966252486       29.2984382152  TIP3      377             0.0000000000
     14598       523  TIP3      H1              4.9952664004      -29.2273002815       28.7771725635  TIP3      377             0.0000000000
     14599       523  TIP3      H2              4.1994285423      -29.2344532488       30.0613813865  TIP3      377             0.0000000000
     14600       524  TIP3      OH2             5.9048606648      -28.4975635144       27.3407233845  TIP3      378             0.0000000000
     14601       524  TIP3      H1              6.5516388675      -28.9478861120       26.7712713893  TIP3      378             0.0000000000
     14602       524  TIP3      H2              6.3142325543      -27.6120166705       27.4944149056  TIP3      378             0.0000000000
     14603       525  TIP3      OH2            -8.9445578216      -29.0049348819       26.6916689335  TIP3      379             0.0000000000
     14604       525  TIP3      H1             -9.7009725117      -29.1664113284       26.1030099833  TIP3      379             0.0000000000
     14605       525  TIP3      H2             -8.4821862848      -29.8696524730       26.5930457827  TIP3      379             0.0000000000
     14606       526  TIP3      OH2            -9.5885307208      -29.5084847382       23.2975889554  TIP3      380             0.0000000000
     14607       526  TIP3      H1             -9.1234809257      -30.0220953253       22.6117740688  TIP3      380             0.0000000000
     14608       526  TIP3      H2            -10.1402977989      -28.9226916451       22.7413140664  TIP3      380             0.0000000000
     14609       527  TIP3      OH2            -4.7761362653      -29.7053661898       26.8137496977  TIP3      381             0.0000000000
     14610       527  TIP3      H1             -4.1726266379      -29.4351909287       26.1077165131  TIP3      381             0.0000000000
     14611       527  TIP3      H2             -4.2347062225      -29.5993079456       27.6290029232  TIP3      381             0.0000000000
     14612       528  TIP3      OH2             0.9231502210      -28.9895159300       28.1054823681  TIP3      382             0.0000000000
     14613       528  TIP3      H1              1.7260666810      -29.0535125613       27.5700412620  TIP3      382             0.0000000000
     14614       528  TIP3      H2              1.1338559788      -29.6174960281       28.8179015214  TIP3      382             0.0000000000
     14615       529  TIP3      OH2             2.7094978747      -28.4133494505       24.1219916282  TIP3      383             0.0000000000
     14616       529  TIP3      H1              1.8824638245      -28.0946343564       23.7099746864  TIP3      383             0.0000000000
     14617       529  TIP3      H2              2.4242914007      -29.2029877311       24.5994283286  TIP3      383             0.0000000000
     14618       530  TIP3      OH2            -9.5016377647      -12.8365981338       23.8180661653  TIP3      384             0.0000000000
     14619       530  TIP3      H1            -10.2014366433      -13.0658037872       23.1806224238  TIP3      384             0.0000000000
     14620       530  TIP3      H2             -9.4346042122      -11.8655517020       23.6830535864  TIP3      384             0.0000000000
     14621       531  TIP3      OH2            -3.1440611906      -27.1175663993       24.0517330549  TIP3      385             0.0000000000
     14622       531  TIP3      H1             -2.5291992231      -27.5778275967       24.6390644319  TIP3      385             0.0000000000
     14623       531  TIP3      H2             -3.0037465540      -26.1911943469       24.3019436407  TIP3      385             0.0000000000
     14624       532  TIP3      OH2            -0.9767766877      -11.6861694720       21.6308439004  TIP3      386             0.0000000000
     14625       532  TIP3      H1              0.0027631866      -11.6717475856       21.7248131772  TIP3      386             0.0000000000
     14626       532  TIP3      H2             -1.0561731437      -12.4540084274       21.0397728059  TIP3      386             0.0000000000
     14627       533  TIP3      OH2             5.3313805119      -12.8818230350       25.0789457291  TIP3      387             0.0000000000
     14628       533  TIP3      H1              5.2698376020      -13.6164831199       24.4138626628  TIP3      387             0.0000000000
     14629       533  TIP3      H2              5.3477362261      -12.1177544788       24.4690420841  TIP3      387             0.0000000000
     14630       534  TIP3      OH2            -9.1287820095      -28.8309120754       36.4940325058  TIP3      388             0.0000000000
     14631       534  TIP3      H1             -9.4777133461      -29.7391398645       36.5214487762  TIP3      388             0.0000000000
     14632       534  TIP3      H2             -8.2171842858      -28.9395551134       36.8093010867  TIP3      388             0.0000000000
     14633       535  TIP3      OH2            -6.7604567280      -29.0792138053       38.2707351348  TIP3      389             0.0000000000
     14634       535  TIP3      H1             -6.0076784562      -29.1426409051       37.6564463522  TIP3      389             0.0000000000
     14635       535  TIP3      H2             -6.4759144260      -29.6613414679       38.9993048857  TIP3      389             0.0000000000
     14636       536  TIP3      OH2             2.2078910964      -29.1672900374       37.9313503694  TIP3      390             0.0000000000
     14637       536  TIP3      H1              1.7137677912      -29.9084215752       38.3420332315  TIP3      390             0.0000000000
     14638       536  TIP3      H2              3.0368704808      -29.6015713681       37.6886363596  TIP3      390             0.0000000000
     14639       537  TIP3      OH2             4.8653504974      -13.7194049922       36.8892190604  TIP3      391             0.0000000000
     14640       537  TIP3      H1              4.3418847609      -13.7897834924       36.0630657685  TIP3      391             0.0000000000
     14641       537  TIP3      H2              4.5841680611      -12.8187142865       37.1641752817  TIP3      391             0.0000000000
     14642       538  TIP3      OH2            20.1870063137      -20.1285078073       27.3484781751  TIP3      392             0.0000000000
     14643       538  TIP3      H1             19.8999102060      -19.2135472426       27.1256086500  TIP3      392             0.0000000000
     14644       538  TIP3      H2             19.3843265619      -20.5408169215       27.6981950402  TIP3      392             0.0000000000
     14645       539  TIP3      OH2            18.1864000336      -21.2188303928       30.0884307346  TIP3      393             0.0000000000
     14646       539  TIP3      H1             18.1891816119      -21.5413528714       31.0157087813  TIP3      393             0.0000000000
     14647       539  TIP3      H2             17.4434939724      -21.6882699576       29.6723344626  TIP3      393             0.0000000000
     14648       540  TIP3      OH2            10.6127192328      -21.1691992732       31.5406586220  TIP3      394             0.0000000000
     14649       540  TIP3      H1             10.8928214727      -21.8643983632       32.1527603371  TIP3      394             0.0000000000
     14650       540  TIP3      H2             10.9166070933      -20.3803375683       32.0117354886  TIP3      394             0.0000000000
     14651       541  TIP3      OH2            21.1541068129      -17.3546396497       28.9034114519  TIP3      395             0.0000000000
     14652       541  TIP3      H1             21.0123309613      -18.2445626889       29.2474712028  TIP3      395             0.0000000000
     14653       541  TIP3      H2             21.7043052381      -16.9373485274       29.5919267540  TIP3      395             0.0000000000
     14654       542  TIP3      OH2            11.7173771784      -15.8711128070       30.5504167688  TIP3      396             0.0000000000
     14655       542  TIP3      H1             10.9263892488      -16.4600063671       30.5382200598  TIP3      396             0.0000000000
     14656       542  TIP3      H2             12.2978465399      -16.3559493100       29.9421882713  TIP3      396             0.0000000000
     14657       543  TIP3      OH2             8.0706591205      -23.5943775571       25.5880171959  TIP3      397             0.0000000000
     14658       543  TIP3      H1              7.9683468186      -22.7027645962       25.9556869006  TIP3      397             0.0000000000
     14659       543  TIP3      H2              7.1377054658      -23.7911151855       25.3763114338  TIP3      397             0.0000000000
     14660       544  TIP3      OH2             8.5493328499      -20.3742998357       28.1752059388  TIP3      398             0.0000000000
     14661       544  TIP3      H1              8.9551571264      -21.2264883919       28.3911397671  TIP3      398             0.0000000000
     14662       544  TIP3      H2              9.2644397345      -19.7229897920       28.3243973753  TIP3      398             0.0000000000
     14663       545  TIP3      OH2            19.2796299515      -12.4142260900       28.9975648483  TIP3      399             0.0000000000
     14664       545  TIP3      H1             19.7687423363      -13.0799184344       28.4639789605  TIP3      399             0.0000000000
     14665       545  TIP3      H2             18.8083316892      -12.9760585758       29.6194942211  TIP3      399             0.0000000000
     14666       546  TIP3      OH2            16.1601031846      -17.7187539165       31.3163600951  TIP3      400             0.0000000000
     14667       546  TIP3      H1             16.7017281479      -18.2285952904       30.7001644235  TIP3      400             0.0000000000
     14668       546  TIP3      H2             16.8288417141      -17.4523907706       31.9826612912  TIP3      400             0.0000000000
     14669       547  TIP3      OH2            25.3712872538      -26.7887573980       30.7433184109  TIP3      401             0.0000000000
     14670       547  TIP3      H1             25.4505645313      -26.1732043876       31.4956455173  TIP3      401             0.0000000000
     14671       547  TIP3      H2             25.8220970556      -26.3013531818       30.0321618933  TIP3      401             0.0000000000
     14672       548  TIP3      OH2            20.0418317646      -24.1073148879       31.3626041504  TIP3      402             0.0000000000
     14673       548  TIP3      H1             20.0241826113      -25.0812856741       31.4484476666  TIP3      402             0.0000000000
     14674       548  TIP3      H2             20.2486062626      -24.0459720492       30.4163254927  TIP3      402             0.0000000000
     14675       549  TIP3      OH2            12.8224279089      -26.7277461790       28.1073478938  TIP3      403             0.0000000000
     14676       549  TIP3      H1             13.2504935825      -25.8832002090       27.8530990834  TIP3      403             0.0000000000
     14677       549  TIP3      H2             12.1915330878      -26.8489367431       27.3639657256  TIP3      403             0.0000000000
     14678       550  TIP3      OH2            21.9985829015      -25.5107139302       25.9470129207  TIP3      404             0.0000000000
     14679       550  TIP3      H1             21.8265351880      -26.3014341828       26.4716473848  TIP3      404             0.0000000000
     14680       550  TIP3      H2             21.2580969289      -24.9507017031       26.2257343658  TIP3      404             0.0000000000
     14681       551  TIP3      OH2             9.1922373810      -23.4315163028       28.8249287334  TIP3      405             0.0000000000
     14682       551  TIP3      H1             10.0000969951      -23.1832565560       29.2825528385  TIP3      405             0.0000000000
     14683       551  TIP3      H2              9.5355343667      -24.0280950505       28.1333400060  TIP3      405             0.0000000000
     14684       552  TIP3      OH2            14.2845481802      -22.1031207877       28.4532495169  TIP3      406             0.0000000000
     14685       552  TIP3      H1             15.2146182199      -22.4256668842       28.3820465071  TIP3      406             0.0000000000
     14686       552  TIP3      H2             13.7858970470      -22.8734441388       28.0997999149  TIP3      406             0.0000000000
     14687       553  TIP3      OH2            25.5817595617      -25.5599400065       33.2754653493  TIP3      407             0.0000000000
     14688       553  TIP3      H1             25.2145940310      -24.7030732559       32.9752561566  TIP3      407             0.0000000000
     14689       553  TIP3      H2             25.9262449639      -25.2924721712       34.1428448047  TIP3      407             0.0000000000
     14690       554  TIP3      OH2            11.9204895711      -26.9779027427       32.3133175812  TIP3      408             0.0000000000
     14691       554  TIP3      H1             11.7012380556      -26.4027114883       31.5418444128  TIP3      408             0.0000000000
     14692       554  TIP3      H2             11.2601374061      -26.6390146368       32.9542112113  TIP3      408             0.0000000000
     14693       555  TIP3      OH2            19.1894266895      -17.6642292816       26.1371755074  TIP3      409             0.0000000000
     14694       555  TIP3      H1             18.4646550658      -17.7063132673       25.5019217233  TIP3      409             0.0000000000
     14695       555  TIP3      H2             18.9394992403      -16.8609028892       26.6385711189  TIP3      409             0.0000000000
     14696       556  TIP3      OH2            13.8091618008      -19.0971127447       31.9915153312  TIP3      410             0.0000000000
     14697       556  TIP3      H1             13.1679128072      -18.5206747234       32.4500892683  TIP3      410             0.0000000000
     14698       556  TIP3      H2             14.4229139831      -18.4092254423       31.6567774872  TIP3      410             0.0000000000
     14699       557  TIP3      OH2            22.3458421037      -27.4775802025       29.1513502667  TIP3      411             0.0000000000
     14700       557  TIP3      H1             21.6218709846      -27.1165943532       29.7056888696  TIP3      411             0.0000000000
     14701       557  TIP3      H2             22.9071212949      -26.6994062851       28.9825800328  TIP3      411             0.0000000000
     14702       558  TIP3      OH2            11.5735876311      -25.3103949261       30.1716190410  TIP3      412             0.0000000000
     14703       558  TIP3      H1             12.1390586794      -24.6325146187       30.6187747227  TIP3      412             0.0000000000
     14704       558  TIP3      H2             12.1386067188      -25.5874885059       29.4193300391  TIP3      412             0.0000000000
     14705       559  TIP3      OH2            12.5620020510      -16.8692148808       33.0645324961  TIP3      413             0.0000000000
     14706       559  TIP3      H1             12.2462682326      -16.3129629311       32.3202030146  TIP3      413             0.0000000000
     14707       559  TIP3      H2             11.7223686430      -16.9880925185       33.5814485991  TIP3      413             0.0000000000
     14708       560  TIP3      OH2             8.7368676827      -17.6228546735       23.6776963711  TIP3      414             0.0000000000
     14709       560  TIP3      H1              8.5700726102      -17.1266401475       22.8574479583  TIP3      414             0.0000000000
     14710       560  TIP3      H2              9.1618916629      -16.9404634968       24.2384966432  TIP3      414             0.0000000000
     14711       561  TIP3      OH2            22.3993481154      -15.7656209079       30.8288099537  TIP3      415             0.0000000000
     14712       561  TIP3      H1             21.4278830457      -15.7615796443       31.0023988365  TIP3      415             0.0000000000
     14713       561  TIP3      H2             22.4703694204      -14.8093678931       30.6236325854  TIP3      415             0.0000000000
     14714       562  TIP3      OH2            23.2669480915      -27.6664860990       32.5631255935  TIP3      416             0.0000000000
     14715       562  TIP3      H1             22.4838602221      -27.3433332766       32.0914851528  TIP3      416             0.0000000000
     14716       562  TIP3      H2             23.9236927763      -27.7473950543       31.8421099895  TIP3      416             0.0000000000
     14717       563  TIP3      OH2            15.3343458093      -29.8629920140       29.2612738775  TIP3      417             0.0000000000
     14718       563  TIP3      H1             15.3626824677      -30.6813143105       29.7824378359  TIP3      417             0.0000000000
     14719       563  TIP3      H2             14.7704781065      -29.2929806644       29.8225325974  TIP3      417             0.0000000000
     14720       564  TIP3      OH2            20.5950516236      -14.2043785192       27.4378951867  TIP3      418             0.0000000000
     14721       564  TIP3      H1             20.9810399003      -15.0736096107       27.1989375092  TIP3      418             0.0000000000
     14722       564  TIP3      H2             21.3439481904      -13.6160288422       27.1782828178  TIP3      418             0.0000000000
     14723       565  TIP3      OH2            22.0800689433      -16.4725569500       26.1322153910  TIP3      419             0.0000000000
     14724       565  TIP3      H1             22.0481659132      -17.1326072319       25.4083687089  TIP3      419             0.0000000000
     14725       565  TIP3      H2             21.7164585500      -16.9787146280       26.8834386761  TIP3      419             0.0000000000
     14726       566  TIP3      OH2            23.3831272477      -17.7873081094       34.4844751359  TIP3      420             0.0000000000
     14727       566  TIP3      H1             23.3799200064      -18.4102733439       33.7171483017  TIP3      420             0.0000000000
     14728       566  TIP3      H2             23.5608683646      -16.9436490756       34.0174187604  TIP3      420             0.0000000000
     14729       567  TIP3      OH2            18.0573692798      -20.5078034079       24.1587220772  TIP3      421             0.0000000000
     14730       567  TIP3      H1             17.3467041192      -19.8383937395       23.9700667702  TIP3      421             0.0000000000
     14731       567  TIP3      H2             18.8592398435      -20.1169477809       23.7656299189  TIP3      421             0.0000000000
     14732       568  TIP3      OH2            25.2845834231      -20.9770757925       32.5736520600  TIP3      422             0.0000000000
     14733       568  TIP3      H1             24.5763841291      -20.3417462220       32.3394008249  TIP3      422             0.0000000000
     14734       568  TIP3      H2             25.9693515567      -20.7151514490       31.9221021974  TIP3      422             0.0000000000
     14735       569  TIP3      OH2            21.6710965800      -21.0664011615       25.0982204996  TIP3      423             0.0000000000
     14736       569  TIP3      H1             21.0205173701      -20.9657020638       25.8273496310  TIP3      423             0.0000000000
     14737       569  TIP3      H2             22.4587151045      -21.3855621080       25.5818685841  TIP3      423             0.0000000000
     14738       570  TIP3      OH2            21.0400177820      -22.0327672136       34.3196386096  TIP3      424             0.0000000000
     14739       570  TIP3      H1             21.2500588536      -21.1026753882       34.4935604904  TIP3      424             0.0000000000
     14740       570  TIP3      H2             20.2015651859      -21.9289734829       33.8173035592  TIP3      424             0.0000000000
     14741       571  TIP3      OH2            12.8519470860      -20.3066464008       27.1155910059  TIP3      425             0.0000000000
     14742       571  TIP3      H1             12.5804589292      -20.5640275163       26.2056776182  TIP3      425             0.0000000000
     14743       571  TIP3      H2             13.4696004860      -21.0231474696       27.3621725717  TIP3      425             0.0000000000
     14744       572  TIP3      OH2            14.7545449465      -16.3305387083       29.5208947781  TIP3      426             0.0000000000
     14745       572  TIP3      H1             14.6743353569      -16.8986574405       28.7399068925  TIP3      426             0.0000000000
     14746       572  TIP3      H2             15.2610589411      -16.8922176027       30.1425172702  TIP3      426             0.0000000000
     14747       573  TIP3      OH2            13.2232832329      -21.4930336926       30.8164567047  TIP3      427             0.0000000000
     14748       573  TIP3      H1             13.5720021409      -21.5179824479       29.8927266761  TIP3      427             0.0000000000
     14749       573  TIP3      H2             13.4132313303      -20.5722233107       31.0931541117  TIP3      427             0.0000000000
     14750       574  TIP3      OH2            19.9430299745      -15.3732106839       31.6341867665  TIP3      428             0.0000000000
     14751       574  TIP3      H1             19.6337738406      -14.7003079367       32.2566172095  TIP3      428             0.0000000000
     14752       574  TIP3      H2             19.4834661068      -16.1546425343       31.9871768226  TIP3      428             0.0000000000
     14753       575  TIP3      OH2            14.2919273012      -16.8621255970       35.3042354951  TIP3      429             0.0000000000
     14754       575  TIP3      H1             13.6879651843      -16.3096899848       35.8606095537  TIP3      429             0.0000000000
     14755       575  TIP3      H2             13.8184432512      -16.8246268170       34.4490578189  TIP3      429             0.0000000000
     14756       576  TIP3      OH2            20.4629629714      -20.5235492636       22.8183874699  TIP3      430             0.0000000000
     14757       576  TIP3      H1             20.9349618960      -20.8739621615       23.6125674121  TIP3      430             0.0000000000
     14758       576  TIP3      H2             21.1680878708      -19.9590936785       22.4534899646  TIP3      430             0.0000000000
     14759       577  TIP3      OH2            11.2786326176      -20.6141262969       34.2451801337  TIP3      431             0.0000000000
     14760       577  TIP3      H1             11.5547176101      -19.8547606005       34.7883189600  TIP3      431             0.0000000000
     14761       577  TIP3      H2             10.4705930344      -20.8661635873       34.7191639082  TIP3      431             0.0000000000
     14762       578  TIP3      OH2            18.0608391888      -15.2111510473       26.7874984129  TIP3      432             0.0000000000
     14763       578  TIP3      H1             18.7090319032      -14.6908820655       27.2967034084  TIP3      432             0.0000000000
     14764       578  TIP3      H2             17.8694229948      -14.6178329447       26.0542815028  TIP3      432             0.0000000000
     14765       579  TIP3      OH2            12.7714208249      -15.1155868649       36.7048767550  TIP3      433             0.0000000000
     14766       579  TIP3      H1             12.7593886304      -14.4420615047       35.9848136062  TIP3      433             0.0000000000
     14767       579  TIP3      H2             11.8254965748      -15.4014231311       36.7107739040  TIP3      433             0.0000000000
     14768       580  TIP3      OH2            23.9025070357      -29.7984673421       23.0989275829  TIP3      434             0.0000000000
     14769       580  TIP3      H1             22.9366997985      -29.8028957079       23.1893751762  TIP3      434             0.0000000000
     14770       580  TIP3      H2             24.0086181795      -29.1947134756       22.3385712605  TIP3      434             0.0000000000
     14771       581  TIP3      OH2            11.8379298488      -21.1378577586       24.6974863426  TIP3      435             0.0000000000
     14772       581  TIP3      H1             11.8611138883      -20.3325480428       24.1316418104  TIP3      435             0.0000000000
     14773       581  TIP3      H2             10.9954749488      -21.5241721706       24.4389397111  TIP3      435             0.0000000000
     14774       582  TIP3      OH2             8.0892792711      -18.3551961181       33.6447498675  TIP3      436             0.0000000000
     14775       582  TIP3      H1              8.1924409990      -18.0367910867       32.7115589016  TIP3      436             0.0000000000
     14776       582  TIP3      H2              8.4808638673      -19.2376199500       33.5498228475  TIP3      436             0.0000000000
     14777       583  TIP3      OH2             7.4204496601      -14.6651550329       30.5987290433  TIP3      437             0.0000000000
     14778       583  TIP3      H1              8.1729193372      -15.2946853923       30.4896202986  TIP3      437             0.0000000000
     14779       583  TIP3      H2              7.0370902798      -15.0314625611       31.4100895210  TIP3      437             0.0000000000
     14780       584  TIP3      OH2            26.1756432854      -15.0150934719       36.4335191071  TIP3      438             0.0000000000
     14781       584  TIP3      H1             25.8899846478      -15.9012362140       36.1648984740  TIP3      438             0.0000000000
     14782       584  TIP3      H2             25.3091792177      -14.7198347344       36.8049012625  TIP3      438             0.0000000000
     14783       585  TIP3      OH2            16.6996121220      -15.5434443462       35.1800603331  TIP3      439             0.0000000000
     14784       585  TIP3      H1             16.9263813648      -14.8238078454       35.7914115606  TIP3      439             0.0000000000
     14785       585  TIP3      H2             15.7607815940      -15.7640569291       35.3910714780  TIP3      439             0.0000000000
     14786       586  TIP3      OH2            17.5417612132      -11.9761605525       24.9257397248  TIP3      440             0.0000000000
     14787       586  TIP3      H1             16.6615371651      -12.3701425236       24.9493617373  TIP3      440             0.0000000000
     14788       586  TIP3      H2             17.3967382777      -11.0608908659       25.2431116658  TIP3      440             0.0000000000
     14789       587  TIP3      OH2            11.1235821749      -12.9096846461       26.6344257981  TIP3      441             0.0000000000
     14790       587  TIP3      H1             11.2428745484      -13.2194098768       27.5617173684  TIP3      441             0.0000000000
     14791       587  TIP3      H2             10.4393314657      -13.4910864527       26.2767588673  TIP3      441             0.0000000000
     14792       588  TIP3      OH2            20.1583658710      -12.5549752688       24.4935963411  TIP3      442             0.0000000000
     14793       588  TIP3      H1             19.2407390851      -12.3369404527       24.7793056379  TIP3      442             0.0000000000
     14794       588  TIP3      H2             20.5459380600      -12.9972775458       25.2638905221  TIP3      442             0.0000000000
     14795       589  TIP3      OH2            22.9846753790      -23.4814646567       36.5537828970  TIP3      443             0.0000000000
     14796       589  TIP3      H1             22.5460120421      -23.0731971949       35.7847633190  TIP3      443             0.0000000000
     14797       589  TIP3      H2             22.9945260546      -24.4266277574       36.2834049712  TIP3      443             0.0000000000
     14798       590  TIP3      OH2            10.4049741277      -17.1645163640       34.5130303511  TIP3      444             0.0000000000
     14799       590  TIP3      H1             10.5166063329      -17.5838259606       35.3957873206  TIP3      444             0.0000000000
     14800       590  TIP3      H2              9.5286873592      -17.4850107543       34.2122375823  TIP3      444             0.0000000000
     14801       591  TIP3      OH2            13.4287818988      -28.7733240161       30.9195968105  TIP3      445             0.0000000000
     14802       591  TIP3      H1             12.7575309920      -28.9685082625       30.2336515215  TIP3      445             0.0000000000
     14803       591  TIP3      H2             12.9282380553      -28.0879928533       31.4132889186  TIP3      445             0.0000000000
     14804       592  TIP3      OH2            17.6306923082      -28.4172378740       34.7453200271  TIP3      446             0.0000000000
     14805       592  TIP3      H1             18.2236773393      -29.0527112910       34.2953214679  TIP3      446             0.0000000000
     14806       592  TIP3      H2             16.7552296137      -28.7552974667       34.4710917777  TIP3      446             0.0000000000
     14807       593  TIP3      OH2            20.8186539315      -24.7811543337       34.2866802116  TIP3      447             0.0000000000
     14808       593  TIP3      H1             20.4696860128      -24.9115401244       35.1937742850  TIP3      447             0.0000000000
     14809       593  TIP3      H2             20.8106401460      -23.8099930917       34.1801374927  TIP3      447             0.0000000000
     14810       594  TIP3      OH2            16.4303005978      -26.2530931009       21.7691925457  TIP3      448             0.0000000000
     14811       594  TIP3      H1             16.3215767714      -26.7233796935       22.6183763009  TIP3      448             0.0000000000
     14812       594  TIP3      H2             17.0667202098      -26.7953249950       21.2866365377  TIP3      448             0.0000000000
     14813       595  TIP3      OH2            13.1569778966      -23.9510673416       31.8826052767  TIP3      449             0.0000000000
     14814       595  TIP3      H1             12.3588465534      -23.8797116354       32.4529285480  TIP3      449             0.0000000000
     14815       595  TIP3      H2             13.1993408631      -23.0446987697       31.4991265846  TIP3      449             0.0000000000
     14816       596  TIP3      OH2            12.9709426605      -24.0748877941       27.1732190542  TIP3      450             0.0000000000
     14817       596  TIP3      H1             12.0302640843      -24.0450336945       26.8851607185  TIP3      450             0.0000000000
     14818       596  TIP3      H2             13.4227936121      -24.5056756344       26.4297702497  TIP3      450             0.0000000000
     14819       597  TIP3      OH2            18.4505776493      -22.3924621704       26.1280222327  TIP3      451             0.0000000000
     14820       597  TIP3      H1             18.1409666328      -21.6742207322       25.5433556013  TIP3      451             0.0000000000
     14821       597  TIP3      H2             19.0151089292      -22.8423464437       25.4670118643  TIP3      451             0.0000000000
     14822       598  TIP3      OH2            17.5822051269      -22.7337752438       36.6856070730  TIP3      452             0.0000000000
     14823       598  TIP3      H1             17.1378456721      -23.5342548575       37.0579901168  TIP3      452             0.0000000000
     14824       598  TIP3      H2             18.2661624195      -22.6234950085       37.3694248473  TIP3      452             0.0000000000
     14825       599  TIP3      OH2            20.1905724061      -23.2581511552       28.5201463841  TIP3      453             0.0000000000
     14826       599  TIP3      H1             19.6705628763      -22.6222075987       27.9985395620  TIP3      453             0.0000000000
     14827       599  TIP3      H2             19.7311871082      -24.0758719834       28.2257511527  TIP3      453             0.0000000000
     14828       600  TIP3      OH2            10.7382088348      -23.7195390235       33.0972237225  TIP3      454             0.0000000000
     14829       600  TIP3      H1             11.0198313592      -23.2858767924       33.9112879791  TIP3      454             0.0000000000
     14830       600  TIP3      H2             10.2678006059      -24.5135267858       33.4125084253  TIP3      454             0.0000000000
     14831       601  TIP3      OH2             7.3429044369      -26.1643934987       27.1982801611  TIP3      455             0.0000000000
     14832       601  TIP3      H1              8.0648508648      -26.0555056383       27.8496905420  TIP3      455             0.0000000000
     14833       601  TIP3      H2              7.7361426620      -26.7463196275       26.5245052184  TIP3      455             0.0000000000
     14834       602  TIP3      OH2             8.2144368444      -25.5301344166       23.3078946707  TIP3      456             0.0000000000
     14835       602  TIP3      H1              8.4566211123      -24.8887794680       22.6183958840  TIP3      456             0.0000000000
     14836       602  TIP3      H2              7.9934383548      -24.9354531408       24.0538998747  TIP3      456             0.0000000000
     14837       603  TIP3      OH2            18.6961558670      -22.1719037342       32.6740036177  TIP3      457             0.0000000000
     14838       603  TIP3      H1             19.2080784986      -22.8541858295       32.1714267597  TIP3      457             0.0000000000
     14839       603  TIP3      H2             18.1848465912      -22.7520455477       33.2914783338  TIP3      457             0.0000000000
     14840       604  TIP3      OH2            15.3768404601      -25.8984309320       27.5790582532  TIP3      458             0.0000000000
     14841       604  TIP3      H1             14.9061755217      -26.7229570581       27.8007029107  TIP3      458             0.0000000000
     14842       604  TIP3      H2             15.8365423205      -25.6868110225       28.4066330802  TIP3      458             0.0000000000
     14843       605  TIP3      OH2            10.3619504547      -24.5503589490       26.5912571256  TIP3      459             0.0000000000
     14844       605  TIP3      H1              9.5246746788      -24.3003268786       26.1352405001  TIP3      459             0.0000000000
     14845       605  TIP3      H2             10.5015739280      -25.4582962270       26.2587691163  TIP3      459             0.0000000000
     14846       606  TIP3      OH2            14.1707970286      -24.4840943683       23.7487415327  TIP3      460             0.0000000000
     14847       606  TIP3      H1             15.0691362165      -24.2470332968       24.0748054081  TIP3      460             0.0000000000
     14848       606  TIP3      H2             13.6879710511      -23.6652732925       23.9224245512  TIP3      460             0.0000000000
     14849       607  TIP3      OH2            20.2877533332      -26.8914022009       30.8773578063  TIP3      461             0.0000000000
     14850       607  TIP3      H1             19.8587456501      -27.0295299649       31.7596404107  TIP3      461             0.0000000000
     14851       607  TIP3      H2             19.5293203802      -27.1806377477       30.3285618960  TIP3      461             0.0000000000
     14852       608  TIP3      OH2            22.9156509211      -11.4025137346       37.6626550956  TIP3      462             0.0000000000
     14853       608  TIP3      H1             23.2850685172      -11.3444778168       36.7674238532  TIP3      462             0.0000000000
     14854       608  TIP3      H2             23.6304461410      -11.0191367404       38.2019486803  TIP3      462             0.0000000000
     14855       609  TIP3      OH2            10.9230349345      -18.7183781365       36.7634808420  TIP3      463             0.0000000000
     14856       609  TIP3      H1             11.5990849035      -18.4806631427       37.4362432878  TIP3      463             0.0000000000
     14857       609  TIP3      H2             10.1233901852      -18.8258337232       37.3313342401  TIP3      463             0.0000000000
     14858       610  TIP3      OH2            16.6412912740      -23.3781977298       28.8541087757  TIP3      464             0.0000000000
     14859       610  TIP3      H1             17.2411083701      -23.9453295843       28.3216571065  TIP3      464             0.0000000000
     14860       610  TIP3      H2             16.6754265160      -23.7677227940       29.7320520834  TIP3      464             0.0000000000
     14861       611  TIP3      OH2            11.2391436380      -26.9848609940       25.9284434220  TIP3      465             0.0000000000
     14862       611  TIP3      H1             10.7375703875      -27.7254182744       26.3335654955  TIP3      465             0.0000000000
     14863       611  TIP3      H2             11.8762284709      -27.4728819263       25.3874795528  TIP3      465             0.0000000000
     14864       612  TIP3      OH2            15.7427426768      -24.6820271706       32.4075112816  TIP3      466             0.0000000000
     14865       612  TIP3      H1             14.8767388217      -24.2207758369       32.3783713740  TIP3      466             0.0000000000
     14866       612  TIP3      H2             16.2729595480      -24.1412312561       33.0221868192  TIP3      466             0.0000000000
     14867       613  TIP3      OH2            16.0969504920      -18.7047205287       23.8500156493  TIP3      467             0.0000000000
     14868       613  TIP3      H1             15.7881457656      -18.2054894070       23.0593133971  TIP3      467             0.0000000000
     14869       613  TIP3      H2             15.7041398118      -18.2297050635       24.6055217260  TIP3      467             0.0000000000
     14870       614  TIP3      OH2            23.3968952275      -19.1611386923       32.2641873325  TIP3      468             0.0000000000
     14871       614  TIP3      H1             23.8882399208      -18.7382694987       31.5198642971  TIP3      468             0.0000000000
     14872       614  TIP3      H2             22.5744891883      -19.4419600968       31.8108190471  TIP3      468             0.0000000000
     14873       615  TIP3      OH2            20.0655246714      -26.4083216634       22.5873675814  TIP3      469             0.0000000000
     14874       615  TIP3      H1             20.1493375638      -26.9053388289       21.7578990501  TIP3      469             0.0000000000
     14875       615  TIP3      H2             20.9378908345      -25.9980010812       22.6668265485  TIP3      469             0.0000000000
     14876       616  TIP3      OH2            17.6411745728      -18.1813792852       35.2391099509  TIP3      470             0.0000000000
     14877       616  TIP3      H1             17.0596148176      -18.6402319044       35.8670176356  TIP3      470             0.0000000000
     14878       616  TIP3      H2             17.2877871039      -17.2691484001       35.2751632396  TIP3      470             0.0000000000
     14879       617  TIP3      OH2            20.0208217757      -23.1948807172       23.9930147671  TIP3      471             0.0000000000
     14880       617  TIP3      H1             20.9667259177      -23.4417239837       23.9947976390  TIP3      471             0.0000000000
     14881       617  TIP3      H2             20.0199700219      -22.4316599911       23.3949062393  TIP3      471             0.0000000000
     14882       618  TIP3      OH2            11.5124576752      -19.3669509100       29.3667339696  TIP3      472             0.0000000000
     14883       618  TIP3      H1             12.1444947891      -19.6376760884       28.6731913843  TIP3      472             0.0000000000
     14884       618  TIP3      H2             11.5816440785      -20.1141308543       29.9756866536  TIP3      472             0.0000000000
     14885       619  TIP3      OH2             8.0103251805      -21.0452217360       35.0188937230  TIP3      473             0.0000000000
     14886       619  TIP3      H1              8.0815623829      -21.8257038703       35.5921370692  TIP3      473             0.0000000000
     14887       619  TIP3      H2              7.4736667304      -21.3704369919       34.2657144881  TIP3      473             0.0000000000
     14888       620  TIP3      OH2            15.4052532587      -21.3119915763       36.2110751401  TIP3      474             0.0000000000
     14889       620  TIP3      H1             14.9159276025      -22.1045997514       35.9557671943  TIP3      474             0.0000000000
     14890       620  TIP3      H2             16.3198160111      -21.6697626632       36.2913657902  TIP3      474             0.0000000000
     14891       621  TIP3      OH2            20.2407015835      -16.0578191754       35.3245579642  TIP3      475             0.0000000000
     14892       621  TIP3      H1             19.5058784958      -15.8513669391       34.7289778883  TIP3      475             0.0000000000
     14893       621  TIP3      H2             19.8927351505      -15.7160501491       36.1724511512  TIP3      475             0.0000000000
     14894       622  TIP3      OH2            25.5888520555      -23.5707470839       23.4685591960  TIP3      476             0.0000000000
     14895       622  TIP3      H1             25.2608114283      -23.9036921004       22.6028825906  TIP3      476             0.0000000000
     14896       622  TIP3      H2             25.9316313617      -22.6964387768       23.1962203890  TIP3      476             0.0000000000
     14897       623  TIP3      OH2            25.6195629280      -18.1246914051       35.9090253783  TIP3      477             0.0000000000
     14898       623  TIP3      H1             24.7289296323      -17.9515992393       35.5193180482  TIP3      477             0.0000000000
     14899       623  TIP3      H2             26.2015103345      -18.1000230078       35.1182713678  TIP3      477             0.0000000000
     14900       624  TIP3      OH2            23.9893051397      -15.0217270636       23.6346881783  TIP3      478             0.0000000000
     14901       624  TIP3      H1             23.7880207021      -15.7156959377       24.2837075245  TIP3      478             0.0000000000
     14902       624  TIP3      H2             24.0441260508      -15.5583630199       22.8349652315  TIP3      478             0.0000000000
     14903       625  TIP3      OH2            21.1697663725      -20.0129178028       30.9143800754  TIP3      479             0.0000000000
     14904       625  TIP3      H1             20.3096967873      -20.4347734539       30.8263114849  TIP3      479             0.0000000000
     14905       625  TIP3      H2             21.7001409923      -20.5575025729       30.2888177550  TIP3      479             0.0000000000
     14906       626  TIP3      OH2            13.4501250165      -15.8707068542       26.9514768050  TIP3      480             0.0000000000
     14907       626  TIP3      H1             14.0217802164      -15.1301729973       27.2030952813  TIP3      480             0.0000000000
     14908       626  TIP3      H2             12.8943625848      -15.4971927356       26.2556411630  TIP3      480             0.0000000000
     14909       627  TIP3      OH2            10.0839965843      -20.8349086741       21.4513855898  TIP3      481             0.0000000000
     14910       627  TIP3      H1             10.2853673226      -20.0332473002       21.9711523654  TIP3      481             0.0000000000
     14911       627  TIP3      H2              9.1298442926      -20.9719468582       21.5718962863  TIP3      481             0.0000000000
     14912       628  TIP3      OH2            15.1413598081      -17.9737983822       26.4010761637  TIP3      482             0.0000000000
     14913       628  TIP3      H1             14.4268994171      -17.3127507575       26.5160711619  TIP3      482             0.0000000000
     14914       628  TIP3      H2             14.7624046783      -18.8056847936       26.7256188757  TIP3      482             0.0000000000
     14915       629  TIP3      OH2            15.4397929463      -14.1342174935       33.2752549733  TIP3      483             0.0000000000
     14916       629  TIP3      H1             16.0627447961      -13.4058112464       33.1191506663  TIP3      483             0.0000000000
     14917       629  TIP3      H2             15.9806510423      -14.6772409994       33.8825471034  TIP3      483             0.0000000000
     14918       630  TIP3      OH2            13.7616207037      -12.8972544097       25.7716865588  TIP3      484             0.0000000000
     14919       630  TIP3      H1             12.8343884943      -12.9778559393       26.0667026988  TIP3      484             0.0000000000
     14920       630  TIP3      H2             13.9553809847      -12.0249645194       26.1725168301  TIP3      484             0.0000000000
     14921       631  TIP3      OH2            18.6164182921      -17.7314249355       32.6114480636  TIP3      485             0.0000000000
     14922       631  TIP3      H1             18.3478535877      -18.0463966302       33.5116329217  TIP3      485             0.0000000000
     14923       631  TIP3      H2             19.2119383258      -18.4507935569       32.3405749432  TIP3      485             0.0000000000
     14924       632  TIP3      OH2            21.0581922239      -16.3229415300       21.4756050645  TIP3      486             0.0000000000
     14925       632  TIP3      H1             21.6590208478      -17.0730883384       21.5788810174  TIP3      486             0.0000000000
     14926       632  TIP3      H2             20.2107739478      -16.7487431539       21.6275222664  TIP3      486             0.0000000000
     14927       633  TIP3      OH2            22.0036539959      -13.4100553948       35.0431021296  TIP3      487             0.0000000000
     14928       633  TIP3      H1             21.1582529121      -13.8271848962       34.7875261396  TIP3      487             0.0000000000
     14929       633  TIP3      H2             22.0999887946      -12.6949203750       34.3697916612  TIP3      487             0.0000000000
     14930       634  TIP3      OH2            25.5976762282      -12.4456383547       21.9644269286  TIP3      488             0.0000000000
     14931       634  TIP3      H1             26.0249625992      -11.5976555528       22.1088416516  TIP3      488             0.0000000000
     14932       634  TIP3      H2             24.7031083439      -12.2834922598       22.3311453568  TIP3      488             0.0000000000
     14933       635  TIP3      OH2             9.8667745683      -26.4501121989       34.0256439745  TIP3      489             0.0000000000
     14934       635  TIP3      H1              9.5947665095      -25.9316538466       34.8080291618  TIP3      489             0.0000000000
     14935       635  TIP3      H2             10.1001552920      -27.3261901803       34.4012334990  TIP3      489             0.0000000000
     14936       636  TIP3      OH2            22.0717108299      -18.2284222655       24.1100408858  TIP3      490             0.0000000000
     14937       636  TIP3      H1             21.6972449820      -19.0053837197       24.5491135922  TIP3      490             0.0000000000
     14938       636  TIP3      H2             22.9833249947      -18.5264446314       23.9012660128  TIP3      490             0.0000000000
     14939       637  TIP3      OH2             9.8999833749      -14.4076842264       32.4894772351  TIP3      491             0.0000000000
     14940       637  TIP3      H1             10.1223055935      -15.3430683796       32.3442986013  TIP3      491             0.0000000000
     14941       637  TIP3      H2             10.1660874879      -14.2741738083       33.4049009645  TIP3      491             0.0000000000
     14942       638  TIP3      OH2            11.1165471617      -19.0184031387       23.1675628248  TIP3      492             0.0000000000
     14943       638  TIP3      H1             10.3802501517      -18.6608300016       23.6891685086  TIP3      492             0.0000000000
     14944       638  TIP3      H2             11.3569074130      -18.2019990147       22.6803712902  TIP3      492             0.0000000000
     14945       639  TIP3      OH2            19.0646458232      -26.7039162378       33.2546211601  TIP3      493             0.0000000000
     14946       639  TIP3      H1             19.7543765101      -26.1902102137       33.7275626057  TIP3      493             0.0000000000
     14947       639  TIP3      H2             18.5835445570      -27.1825786028       33.9662332273  TIP3      493             0.0000000000
     14948       640  TIP3      OH2            19.2358612890      -27.5383964597       24.9369205015  TIP3      494             0.0000000000
     14949       640  TIP3      H1             19.2731836019      -26.8515154128       24.2363323747  TIP3      494             0.0000000000
     14950       640  TIP3      H2             19.2340508237      -26.9952812750       25.7662039066  TIP3      494             0.0000000000
     14951       641  TIP3      OH2            16.7893213313      -14.5049449521       22.8111639939  TIP3      495             0.0000000000
     14952       641  TIP3      H1             17.4331999690      -15.1222662338       23.1893802968  TIP3      495             0.0000000000
     14953       641  TIP3      H2             16.7452281334      -14.9080120554       21.9112873873  TIP3      495             0.0000000000
     14954       642  TIP3      OH2            16.6616385069      -24.5205328675       25.1761279359  TIP3      496             0.0000000000
     14955       642  TIP3      H1             17.3959335296      -23.9553380527       25.4659432574  TIP3      496             0.0000000000
     14956       642  TIP3      H2             16.6017701098      -25.1163372130       25.9499770559  TIP3      496             0.0000000000
     14957       643  TIP3      OH2            17.5108583521      -23.8336598031       34.3030383090  TIP3      497             0.0000000000
     14958       643  TIP3      H1             17.6962165670      -23.5111195692       35.2193823137  TIP3      497             0.0000000000
     14959       643  TIP3      H2             17.8279896696      -24.7516489784       34.2853502582  TIP3      497             0.0000000000
     14960       644  TIP3      OH2            17.0927828441      -28.1936777188       26.3451167803  TIP3      498             0.0000000000
     14961       644  TIP3      H1             17.4206732071      -27.4949557873       26.9450669398  TIP3      498             0.0000000000
     14962       644  TIP3      H2             17.8039385337      -28.0851436975       25.6851752626  TIP3      498             0.0000000000
     14963       645  TIP3      OH2            14.2319125212      -13.4533058064       23.1160523999  TIP3      499             0.0000000000
     14964       645  TIP3      H1             15.1596966280      -13.7552572136       23.1802331865  TIP3      499             0.0000000000
     14965       645  TIP3      H2             13.9990647894      -13.2667508873       24.0507976336  TIP3      499             0.0000000000
     14966       646  TIP3      OH2            23.0769727843      -25.9034982299       35.1373622388  TIP3      500             0.0000000000
     14967       646  TIP3      H1             22.3111802520      -25.4928289860       34.6878614039  TIP3      500             0.0000000000
     14968       646  TIP3      H2             23.5745870205      -26.2652381489       34.3910672686  TIP3      500             0.0000000000
     14969       647  TIP3      OH2            22.3998921115      -21.7869702796       29.3241593496  TIP3      501             0.0000000000
     14970       647  TIP3      H1             21.5630859810      -22.2764210973       29.1194134391  TIP3      501             0.0000000000
     14971       647  TIP3      H2             22.9138745178      -22.5000289900       29.7638734497  TIP3      501             0.0000000000
     14972       648  TIP3      OH2            11.4389044942      -16.6491579976       21.8768618558  TIP3      502             0.0000000000
     14973       648  TIP3      H1             11.9976784080      -16.0018388092       22.3315348043  TIP3      502             0.0000000000
     14974       648  TIP3      H2             12.0294548510      -16.9500778275       21.1816939132  TIP3      502             0.0000000000
     14975       649  TIP3      OH2            22.8381666619      -13.0733802864       30.8683851127  TIP3      503             0.0000000000
     14976       649  TIP3      H1             22.9609245764      -12.4149241608       30.1538211685  TIP3      503             0.0000000000
     14977       649  TIP3      H2             23.7648289604      -13.1157891418       31.1761372345  TIP3      503             0.0000000000
     14978       650  TIP3      OH2            11.1632989202      -29.5286765553       29.4063244171  TIP3      504             0.0000000000
     14979       650  TIP3      H1             10.8169969816      -28.9358936891       28.7045981345  TIP3      504             0.0000000000
     14980       650  TIP3      H2             11.0208043033      -30.3959310255       28.9922367757  TIP3      504             0.0000000000
     14981       651  TIP3      OH2             9.8062276112      -15.5110573739       25.1787484385  TIP3      505             0.0000000000
     14982       651  TIP3      H1              9.0674472950      -15.4324906109       25.8028334962  TIP3      505             0.0000000000
     14983       651  TIP3      H2              9.6147169548      -14.7778403017       24.5516085094  TIP3      505             0.0000000000
     14984       652  TIP3      OH2             8.4045769567      -11.9133232692       37.4805343244  TIP3      506             0.0000000000
     14985       652  TIP3      H1              9.0546184577      -12.1891563041       38.1745187926  TIP3      506             0.0000000000
     14986       652  TIP3      H2              8.0176148750      -12.7712743623       37.2307925306  TIP3      506             0.0000000000
     14987       653  TIP3      OH2            13.6163955739      -13.9660040600       38.9946465040  TIP3      507             0.0000000000
     14988       653  TIP3      H1             14.5178706687      -14.2418365820       38.7672466821  TIP3      507             0.0000000000
     14989       653  TIP3      H2             13.1339281500      -14.4273236592       38.2736091030  TIP3      507             0.0000000000
     14990       654  TIP3      OH2            19.4949388492      -14.6531005695       37.5898120051  TIP3      508             0.0000000000
     14991       654  TIP3      H1             19.4904349603      -15.5654819126       37.9681860523  TIP3      508             0.0000000000
     14992       654  TIP3      H2             20.3852558274      -14.3689672162       37.9005357929  TIP3      508             0.0000000000
     14993       655  TIP3      OH2             8.5758856702      -19.0241393845       38.0902167018  TIP3      509             0.0000000000
     14994       655  TIP3      H1              8.2580120080      -19.9287760595       37.9291858873  TIP3      509             0.0000000000
     14995       655  TIP3      H2              8.1309520432      -18.5290247892       37.3725168945  TIP3      509             0.0000000000
     14996       656  TIP3      OH2            15.2695668098      -18.8780439214       37.0836684307  TIP3      510             0.0000000000
     14997       656  TIP3      H1             14.9441250441      -18.2111162801       36.4354964087  TIP3      510             0.0000000000
     14998       656  TIP3      H2             15.2895818776      -19.7231287300       36.5562808588  TIP3      510             0.0000000000
     14999       657  TIP3      OH2            20.8537602130      -18.8254511796       34.8909261127  TIP3      511             0.0000000000
     15000       657  TIP3      H1             21.7813432989      -18.4990103507       34.8498567131  TIP3      511             0.0000000000
     15001       657  TIP3      H2             20.4612083196      -17.9846971694       35.2125272906  TIP3      511             0.0000000000
     15002       658  TIP3      OH2             9.9173304084      -21.7111336173       37.6649771189  TIP3      512             0.0000000000
     15003       658  TIP3      H1             10.3650525484      -22.5119298604       37.9608964289  TIP3      512             0.0000000000
     15004       658  TIP3      H2             10.1278282682      -21.0792071899       38.3893844649  TIP3      512             0.0000000000
     15005       659  TIP3      OH2            13.3015751861      -22.4155201561       34.4287813116  TIP3      513             0.0000000000
     15006       659  TIP3      H1             12.5401584547      -21.8221450815       34.3008791785  TIP3      513             0.0000000000
     15007       659  TIP3      H2             13.9907291152      -21.8994225074       33.9476370713  TIP3      513             0.0000000000
     15008       660  TIP3      OH2            18.6428749605      -19.7260657515       38.2801246028  TIP3      514             0.0000000000
     15009       660  TIP3      H1             19.0507021978      -20.0872262269       37.4781101926  TIP3      514             0.0000000000
     15010       660  TIP3      H2             18.6245651072      -20.4975698715       38.8748521866  TIP3      514             0.0000000000
     15011       661  TIP3      OH2            14.1124339808      -24.7400661746       35.5762389420  TIP3      515             0.0000000000
     15012       661  TIP3      H1             14.3392389018      -25.4374015942       34.9279096472  TIP3      515             0.0000000000
     15013       661  TIP3      H2             14.0169842260      -23.9564391742       34.9879666642  TIP3      515             0.0000000000
     15014       662  TIP3      OH2            14.5803278725      -26.7980128502       33.4546025679  TIP3      516             0.0000000000
     15015       662  TIP3      H1             15.2419842640      -26.2279775740       32.9760878895  TIP3      516             0.0000000000
     15016       662  TIP3      H2             13.7824189249      -26.6424437108       32.9185348820  TIP3      516             0.0000000000
     15017       663  TIP3      OH2            15.2597686627      -20.9693018971       33.2772812600  TIP3      517             0.0000000000
     15018       663  TIP3      H1             16.1546882404      -20.6347561426       33.1315499324  TIP3      517             0.0000000000
     15019       663  TIP3      H2             14.7173638285      -20.2755931930       32.8358981702  TIP3      517             0.0000000000
     15020       664  TIP3      OH2            19.2692373643      -23.2131122823       38.6624122138  TIP3      518             0.0000000000
     15021       664  TIP3      H1             19.4379986094      -24.0590706960       39.1500387296  TIP3      518             0.0000000000
     15022       664  TIP3      H2             20.0913391046      -23.1507994417       38.1538758553  TIP3      518             0.0000000000
     15023       665  TIP3      OH2            21.4401961725      -20.3563823975       37.2149480050  TIP3      519             0.0000000000
     15024       665  TIP3      H1             21.1516414281      -20.0376938294       36.3430198229  TIP3      519             0.0000000000
     15025       665  TIP3      H2             22.3202246437      -20.6946147255       36.9694232099  TIP3      519             0.0000000000
     15026       666  TIP3      OH2            12.2998479854      -24.1384206630       37.8199499999  TIP3      520             0.0000000000
     15027       666  TIP3      H1             11.6380177073      -24.7836168411       37.4847880053  TIP3      520             0.0000000000
     15028       666  TIP3      H2             12.9245878946      -24.1152229375       37.0678075336  TIP3      520             0.0000000000
     15029       667  TIP3      OH2            15.1504698404      -29.3078903630       34.2359056807  TIP3      521             0.0000000000
     15030       667  TIP3      H1             14.7446097078      -28.4792964906       33.8928903681  TIP3      521             0.0000000000
     15031       667  TIP3      H2             14.9415681751      -29.9325958260       33.5177636281  TIP3      521             0.0000000000
     15032       668  TIP3      OH2            16.1925583702      -24.9737875087       37.6689260962  TIP3      522             0.0000000000
     15033       668  TIP3      H1             15.6398779156      -25.3355862278       38.3916328228  TIP3      522             0.0000000000
     15034       668  TIP3      H2             15.6176492999      -25.1469518536       36.9093645294  TIP3      522             0.0000000000
     15035       669  TIP3      OH2            19.4776583416      -25.4334598586       36.6416542018  TIP3      523             0.0000000000
     15036       669  TIP3      H1             18.6567816553      -25.8876749866       36.8884523940  TIP3      523             0.0000000000
     15037       669  TIP3      H2             20.1564523590      -25.9050249562       37.1909528193  TIP3      523             0.0000000000
     15038       670  TIP3      OH2            21.2020068604      -26.5017101834       38.3125406632  TIP3      524             0.0000000000
     15039       670  TIP3      H1             21.2508708309      -27.4911051162       38.3623496561  TIP3      524             0.0000000000
     15040       670  TIP3      H2             20.6734235056      -26.2687919643       39.1096159247  TIP3      524             0.0000000000
     15041       671  TIP3      OH2            10.2177698994      -26.0328127967       37.5599669152  TIP3      525             0.0000000000
     15042       671  TIP3      H1              9.9811128608      -26.9189760279       37.1936262634  TIP3      525             0.0000000000
     15043       671  TIP3      H2             10.2269397848      -26.2360715677       38.5340000533  TIP3      525             0.0000000000
     15044       672  TIP3      OH2            15.4323761924      -29.8683108424       36.8575550271  TIP3      526             0.0000000000
     15045       672  TIP3      H1             16.3949921301      -29.9142938708       36.9699188897  TIP3      526             0.0000000000
     15046       672  TIP3      H2             15.3765415069      -29.6184339936       35.9036731628  TIP3      526             0.0000000000
     15047       673  TIP3      OH2            15.4776390740      -27.9594669060       38.8312722133  TIP3      527             0.0000000000
     15048       673  TIP3      H1             15.1195766953      -28.5932570702       38.1860948931  TIP3      527             0.0000000000
     15049       673  TIP3      H2             14.7792909823      -27.2692578561       38.8584009004  TIP3      527             0.0000000000
     15050       674  TIP3      OH2             7.6084403607      -11.5676376410       26.1195061629  TIP3      528             0.0000000000
     15051       674  TIP3      H1              6.8344149325      -12.1197699877       25.8998051106  TIP3      528             0.0000000000
     15052       674  TIP3      H2              7.9907552748      -12.0911026673       26.8561522259  TIP3      528             0.0000000000
     15053       675  TIP3      OH2             8.2922347122      -13.0616262263       28.2227196346  TIP3      529             0.0000000000
     15054       675  TIP3      H1              7.6683427584      -13.6910326597       28.6403895480  TIP3      529             0.0000000000
     15055       675  TIP3      H2              8.8355894530      -12.7925455340       29.0011948530  TIP3      529             0.0000000000
     15056       676  TIP3      OH2            25.3887846203      -12.1705463766       31.6718579497  TIP3      530             0.0000000000
     15057       676  TIP3      H1             25.9599275805      -11.9947210567       32.4433827946  TIP3      530             0.0000000000
     15058       676  TIP3      H2             25.5000306936      -11.3622527356       31.1633724254  TIP3      530             0.0000000000
     15059       677  TIP3      OH2            25.4495943528      -13.0537208453       34.3455082850  TIP3      531             0.0000000000
     15060       677  TIP3      H1             25.0262453585      -13.7355937872       33.7801771247  TIP3      531             0.0000000000
     15061       677  TIP3      H2             25.7375569865      -13.5954318646       35.1040632759  TIP3      531             0.0000000000
     15062       678  TIP3      OH2            24.1161889411      -17.4303267056       38.9581310156  TIP3      532             0.0000000000
     15063       678  TIP3      H1             23.1956370845      -17.2681294718       39.2602543361  TIP3      532             0.0000000000
     15064       678  TIP3      H2             24.5348594780      -16.5999148518       39.2926984314  TIP3      532             0.0000000000
     15065       679  TIP3      OH2            24.8355287316      -18.6008399244       24.3298187854  TIP3      533             0.0000000000
     15066       679  TIP3      H1             25.7967657060      -18.6285939534       24.1986081979  TIP3      533             0.0000000000
     15067       679  TIP3      H2             24.7396658982      -19.1361387127       25.1423629942  TIP3      533             0.0000000000
     15068       680  TIP3      OH2            25.0833145274      -20.0927598288       26.6338153077  TIP3      534             0.0000000000
     15069       680  TIP3      H1             24.5576549549      -20.9174490102       26.6047678712  TIP3      534             0.0000000000
     15070       680  TIP3      H2             25.4028496305      -20.1056837868       27.5417911672  TIP3      534             0.0000000000
     15071       681  TIP3      OH2            25.4261790282      -18.1203174732       30.7941968413  TIP3      535             0.0000000000
     15072       681  TIP3      H1             26.1512692347      -18.7268101895       30.5444671294  TIP3      535             0.0000000000
     15073       681  TIP3      H2             25.7926561967      -17.2565808315       30.5015231005  TIP3      535             0.0000000000
     15074       682  TIP3      OH2            23.7730542546      -15.2250962213       33.3879305206  TIP3      536             0.0000000000
     15075       682  TIP3      H1             22.9619017545      -14.8684829436       33.7832661619  TIP3      536             0.0000000000
     15076       682  TIP3      H2             23.4688861451      -15.4576789162       32.4825894990  TIP3      536             0.0000000000
     15077       683  TIP3      OH2            24.7068007171      -24.3384229885       21.0946264153  TIP3      537             0.0000000000
     15078       683  TIP3      H1             23.9496666763      -23.7603248986       20.9213184838  TIP3      537             0.0000000000
     15079       683  TIP3      H2             24.2730929463      -25.2117931271       20.9805881690  TIP3      537             0.0000000000
     15080       684  TIP3      OH2            23.5698996761      -22.2872279062       26.9748409481  TIP3      538             0.0000000000
     15081       684  TIP3      H1             23.7247375870      -23.2158436259       27.2303992467  TIP3      538             0.0000000000
     15082       684  TIP3      H2             23.1310033370      -21.9111025736       27.7783595564  TIP3      538             0.0000000000
     15083       685  TIP3      OH2             8.1366180825      -20.7040400014       30.9306076633  TIP3      539             0.0000000000
     15084       685  TIP3      H1              8.0729526297      -20.1376819401       30.1410391824  TIP3      539             0.0000000000
     15085       685  TIP3      H2              9.1137162532      -20.8227540308       31.0021643943  TIP3      539             0.0000000000
     15086       686  TIP3      OH2            24.3122249593      -20.5109739237       36.1792742178  TIP3      540             0.0000000000
     15087       686  TIP3      H1             24.9993333695      -21.1793286180       35.9559046316  TIP3      540             0.0000000000
     15088       686  TIP3      H2             24.8118262186      -19.7074627718       35.9120778631  TIP3      540             0.0000000000
     15089       687  TIP3      OH2            25.7442773542      -22.7045969542       37.0099949207  TIP3      541             0.0000000000
     15090       687  TIP3      H1             24.7864877444      -22.7944047969       36.8797631456  TIP3      541             0.0000000000
     15091       687  TIP3      H2             26.0242061894      -23.6377150506       37.1016813082  TIP3      541             0.0000000000
     15092       688  TIP3      OH2            23.1390218358      -26.4046453248       20.2963676633  TIP3      542             0.0000000000
     15093       688  TIP3      H1             23.6421205962      -27.2501068143       20.3446802008  TIP3      542             0.0000000000
     15094       688  TIP3      H2             22.7611143841      -26.4757661278       19.4016983994  TIP3      542             0.0000000000
     15095       689  TIP3      OH2            22.7386899144      -24.1911050249       23.7487208097  TIP3      543             0.0000000000
     15096       689  TIP3      H1             22.7142749207      -24.7693742195       24.5422763616  TIP3      543             0.0000000000
     15097       689  TIP3      H2             23.6968887390      -24.0539687579       23.6544702012  TIP3      543             0.0000000000
     15098       690  TIP3      OH2            23.7230189596      -23.9293323023       30.6706842895  TIP3      544             0.0000000000
     15099       690  TIP3      H1             24.6624156117      -23.6634481709       30.5704874941  TIP3      544             0.0000000000
     15100       690  TIP3      H2             23.6635100285      -23.9474252835       31.6534366072  TIP3      544             0.0000000000
     15101       691  TIP3      OH2            23.9234874375      -23.2213227630       33.2154022649  TIP3      545             0.0000000000
     15102       691  TIP3      H1             23.0367189513      -22.8525078480       33.3281115151  TIP3      545             0.0000000000
     15103       691  TIP3      H2             24.4511069765      -22.4030284771       33.0578960698  TIP3      545             0.0000000000
     15104       692  TIP3      OH2             8.0779188963      -24.9580439886       36.3903397379  TIP3      546             0.0000000000
     15105       692  TIP3      H1              8.9080165945      -25.1119922263       36.8951928101  TIP3      546             0.0000000000
     15106       692  TIP3      H2              7.5353749939      -25.7373915141       36.6405706238  TIP3      546             0.0000000000
     15107       693  TIP3      OH2            26.4820378759      -29.3196982510       38.7050310596  TIP3      547             0.0000000000
     15108       693  TIP3      H1             25.9357623091      -29.8927593121       38.1243826394  TIP3      547             0.0000000000
     15109       693  TIP3      H2             26.9028072450      -28.7614230787       38.0283964143  TIP3      547             0.0000000000
     15110       694  TIP3      OH2            24.1672031656      -27.3373434350       24.4985891503  TIP3      548             0.0000000000
     15111       694  TIP3      H1             23.3557434545      -27.0415793752       24.9377034211  TIP3      548             0.0000000000
     15112       694  TIP3      H2             23.9383003595      -28.2590348027       24.2476529863  TIP3      548             0.0000000000
     15113       695  TIP3      OH2             9.2121813840      -26.3475692111       29.1762527254  TIP3      549             0.0000000000
     15114       695  TIP3      H1              9.2645470917      -27.1269345666       29.7415743429  TIP3      549             0.0000000000
     15115       695  TIP3      H2              9.9342110070      -25.7857088094       29.5269927674  TIP3      549             0.0000000000
     15116       696  TIP3      OH2             7.3722226400      -23.4244454175       30.6691636871  TIP3      550             0.0000000000
     15117       696  TIP3      H1              8.0350733826      -23.7406843783       30.0091314888  TIP3      550             0.0000000000
     15118       696  TIP3      H2              7.6244801439      -22.4754245817       30.7000433693  TIP3      550             0.0000000000
     15119       697  TIP3      OH2            25.5462843665      -27.1508145034       36.9114278638  TIP3      551             0.0000000000
     15120       697  TIP3      H1             24.7878849199      -26.7865107000       37.4291182043  TIP3      551             0.0000000000
     15121       697  TIP3      H2             25.1055472539      -27.7057028566       36.2449455760  TIP3      551             0.0000000000
     15122       698  TIP3      OH2            26.4781251057      -26.9878378406       22.2966640580  TIP3      552             0.0000000000
     15123       698  TIP3      H1             25.6462430201      -27.4582690560       22.0610332044  TIP3      552             0.0000000000
     15124       698  TIP3      H2             26.1125900283      -26.1360016433       22.5651559963  TIP3      552             0.0000000000
     15125       699  TIP3      OH2             7.8991826156      -27.7123224737       24.8374931856  TIP3      553             0.0000000000
     15126       699  TIP3      H1              7.0865875934      -28.0799155075       24.4652648193  TIP3      553             0.0000000000
     15127       699  TIP3      H2              8.0582210277      -26.9786769646       24.1940782069  TIP3      553             0.0000000000
     15128       700  TIP3      OH2            22.4497776074      -12.5366872436       26.7570612521  TIP3      554             0.0000000000
     15129       700  TIP3      H1             23.3277643496      -12.5044256057       26.3390902324  TIP3      554             0.0000000000
     15130       700  TIP3      H2             22.5870618112      -12.1170862301       27.6240960978  TIP3      554             0.0000000000
     15131       701  TIP3      OH2             7.6982302004      -28.5369389059       32.6926495155  TIP3      555             0.0000000000
     15132       701  TIP3      H1              7.7696900687      -27.9117791050       33.4163618933  TIP3      555             0.0000000000
     15133       701  TIP3      H2              7.2342641334      -27.9954952667       32.0142335882  TIP3      555             0.0000000000
     15134       702  TIP3      OH2            10.1612479427      -15.7537865743       36.9719954944  TIP3      556             0.0000000000
     15135       702  TIP3      H1              9.4437670592      -15.7327757721       36.3244178308  TIP3      556             0.0000000000
     15136       702  TIP3      H2              9.6947562339      -15.8516150895       37.8092278759  TIP3      556             0.0000000000
     15137       703  TIP3      OH2            13.0792559208      -13.6426324215       34.3986613837  TIP3      557             0.0000000000
     15138       703  TIP3      H1             12.8641675822      -12.9672036277       33.7161696449  TIP3      557             0.0000000000
     15139       703  TIP3      H2             13.8687220657      -14.0388543767       33.9707407712  TIP3      557             0.0000000000
     15140       704  TIP3      OH2            16.9937660102      -12.8015255957       36.2316724883  TIP3      558             0.0000000000
     15141       704  TIP3      H1             17.1126932655      -12.8447488387       37.1982974859  TIP3      558             0.0000000000
     15142       704  TIP3      H2             17.9116739564      -12.5938866979       35.9609562752  TIP3      558             0.0000000000
     15143       705  TIP3      OH2            19.3014665088      -11.3472436541       36.0169151900  TIP3      559             0.0000000000
     15144       705  TIP3      H1             20.1749212892      -11.4600608568       35.6194059156  TIP3      559             0.0000000000
     15145       705  TIP3      H2             19.5021280569      -10.8626410283       36.8453077379  TIP3      559             0.0000000000
     15146       706  TIP3      OH2            24.5658900295      -28.9219932139       34.5455636361  TIP3      560             0.0000000000
     15147       706  TIP3      H1             24.0236685958      -28.3259605296       33.9818619744  TIP3      560             0.0000000000
     15148       706  TIP3      H2             24.4050993056      -29.7495711293       34.0578396487  TIP3      560             0.0000000000
     15149       707  TIP3      OH2            10.2679289635      -10.8948015085       33.4542984989  TIP3      561             0.0000000000
     15150       707  TIP3      H1              9.5682056379      -10.2948418935       33.1279811429  TIP3      561             0.0000000000
     15151       707  TIP3      H2             10.2385101295      -10.6708888477       34.4098449284  TIP3      561             0.0000000000
     15152       708  TIP3      OH2            12.4560882572      -11.9390470893       32.4037373596  TIP3      562             0.0000000000
     15153       708  TIP3      H1             11.5682386806      -11.6441298162       32.7361688857  TIP3      562             0.0000000000
     15154       708  TIP3      H2             12.5651086742      -11.3645946039       31.6323967195  TIP3      562             0.0000000000
     15155       709  TIP3      OH2            17.8199797585      -11.8381045855       31.7479918647  TIP3      563             0.0000000000
     15156       709  TIP3      H1             17.1270361220      -11.5303363405       31.1433547433  TIP3      563             0.0000000000
     15157       709  TIP3      H2             17.8285428246      -11.1198693234       32.4168162566  TIP3      563             0.0000000000
     15158       710  TIP3      OH2            19.5804698781      -13.1902605075       33.2637304299  TIP3      564             0.0000000000
     15159       710  TIP3      H1             18.8920311797      -12.8385404732       32.6550345375  TIP3      564             0.0000000000
     15160       710  TIP3      H2             20.2871984279      -12.5674553424       33.0315594952  TIP3      564             0.0000000000
     15161       711  TIP3      OH2            22.2872310606      -11.6998844745       33.1005617842  TIP3      565             0.0000000000
     15162       711  TIP3      H1             22.5082703670      -10.8032664640       32.8116008423  TIP3      565             0.0000000000
     15163       711  TIP3      H2             22.4405651508      -12.1718760665       32.2469122514  TIP3      565             0.0000000000
     15164       712  TIP3      OH2             9.9803093392      -12.6031917208       30.4256932653  TIP3      566             0.0000000000
     15165       712  TIP3      H1              9.7711367117      -13.1233936675       31.2342654905  TIP3      566             0.0000000000
     15166       712  TIP3      H2             10.8405553790      -13.0063101053       30.1735468758  TIP3      566             0.0000000000
     15167       713  TIP3      OH2            12.1924710523      -13.5129611179       29.1492515433  TIP3      567             0.0000000000
     15168       713  TIP3      H1             11.9380872741      -14.3746945256       29.5604604501  TIP3      567             0.0000000000
     15169       713  TIP3      H2             13.0896963588      -13.4381676140       29.5435399752  TIP3      567             0.0000000000
     15170       714  TIP3      OH2            14.5419196427      -13.5840710452       30.4431150313  TIP3      568             0.0000000000
     15171       714  TIP3      H1             14.7699124898      -14.5146816693       30.2092081399  TIP3      568             0.0000000000
     15172       714  TIP3      H2             14.5005751727      -13.6654157407       31.4114697164  TIP3      568             0.0000000000
     15173       715  TIP3      OH2            17.9591827842      -27.7847781061       29.7602700226  TIP3      569             0.0000000000
     15174       715  TIP3      H1             17.3626867070      -28.5050589592       29.4855221328  TIP3      569             0.0000000000
     15175       715  TIP3      H2             18.1089006466      -27.3321978883       28.9089795048  TIP3      569             0.0000000000
     15176       716  TIP3      OH2            23.5742587178      -29.9125324887       29.6258902841  TIP3      570             0.0000000000
     15177       716  TIP3      H1             24.1031520072      -29.2232034871       29.1838719956  TIP3      570             0.0000000000
     15178       716  TIP3      H2             22.8479830889      -29.3666773908       29.9672677230  TIP3      570             0.0000000000
     15179       717  TIP3      OH2            24.7453444331      -28.3884027277       27.1575807276  TIP3      571             0.0000000000
     15180       717  TIP3      H1             25.2757469975      -28.5378379665       26.3542021041  TIP3      571             0.0000000000
     15181       717  TIP3      H2             24.9780258299      -27.4521635397       27.3618940601  TIP3      571             0.0000000000
     15182       718  TIP3      OH2             9.8963189297      -29.1211210274       27.0312166397  TIP3      572             0.0000000000
     15183       718  TIP3      H1              9.0783921681      -29.0842372782       26.5055203048  TIP3      572             0.0000000000
     15184       718  TIP3      H2             10.3917624453      -29.8172579746       26.5198980932  TIP3      572             0.0000000000
     15185       719  TIP3      OH2             8.6975690102      -30.0129665398       22.4265992554  TIP3      573             0.0000000000
     15186       719  TIP3      H1              9.4030743595      -30.5707917505       22.0286516039  TIP3      573             0.0000000000
     15187       719  TIP3      H2              9.2414642621      -29.3317351092       22.8460608242  TIP3      573             0.0000000000
     15188       720  TIP3      OH2            14.1458848007      -29.7778141489       26.5732321158  TIP3      574             0.0000000000
     15189       720  TIP3      H1             14.9099952765      -29.8797889514       25.9614329747  TIP3      574             0.0000000000
     15190       720  TIP3      H2             14.6024640946      -29.4362715417       27.3657145899  TIP3      574             0.0000000000
     15191       721  TIP3      OH2            19.8712078765      -29.2179818374       27.8708552412  TIP3      575             0.0000000000
     15192       721  TIP3      H1             20.4214223686      -28.8318298181       28.5670289832  TIP3      575             0.0000000000
     15193       721  TIP3      H2             19.7965391556      -30.1339190560       28.1863524537  TIP3      575             0.0000000000
     15194       722  TIP3      OH2            21.4740786743      -28.8162462639       23.7398016483  TIP3      576             0.0000000000
     15195       722  TIP3      H1             20.6994852782      -28.2281470678       23.8189158673  TIP3      576             0.0000000000
     15196       722  TIP3      H2             21.3397082958      -29.4299224561       24.4801718001  TIP3      576             0.0000000000
     15197       723  TIP3      OH2             9.0300337847      -13.3961948126       23.6533092054  TIP3      577             0.0000000000
     15198       723  TIP3      H1              8.2286209987      -13.2655538107       23.0981415029  TIP3      577             0.0000000000
     15199       723  TIP3      H2              9.4413930149      -12.5281212106       23.5194513559  TIP3      577             0.0000000000
     15200       724  TIP3      OH2            15.5083583559      -27.0261201360       24.1481680580  TIP3      578             0.0000000000
     15201       724  TIP3      H1             15.8778589124      -27.2984404775       25.0059916250  TIP3      578             0.0000000000
     15202       724  TIP3      H2             15.3219748072      -26.0750875778       24.2702266736  TIP3      578             0.0000000000
     15203       725  TIP3      OH2            24.3678332296      -12.6779240429       25.0351088775  TIP3      579             0.0000000000
     15204       725  TIP3      H1             24.2053131188      -13.6144082567       24.7873108995  TIP3      579             0.0000000000
     15205       725  TIP3      H2             23.9691392701      -12.2554601537       24.2529905763  TIP3      579             0.0000000000
     15206       726  TIP3      OH2             9.7513792870      -28.7107021488       36.4564464751  TIP3      580             0.0000000000
     15207       726  TIP3      H1              9.3486729662      -29.5899528368       36.3385799676  TIP3      580             0.0000000000
     15208       726  TIP3      H2             10.5133803056      -28.8979715700       37.0395488702  TIP3      580             0.0000000000
     15209       727  TIP3      OH2            11.9302946233      -29.1498429421       38.3292869871  TIP3      581             0.0000000000
     15210       727  TIP3      H1             12.6634280243      -29.5783407593       37.8590229804  TIP3      581             0.0000000000
     15211       727  TIP3      H2             11.7255437629      -29.8311239991       39.0122213048  TIP3      581             0.0000000000
     15212       728  TIP3      OH2            21.5845219111      -29.0815456796       38.1916190581  TIP3      582             0.0000000000
     15213       728  TIP3      H1             21.3085724391      -29.9504089067       38.5761426015  TIP3      582             0.0000000000
     15214       728  TIP3      H2             21.9418457126      -29.3357445766       37.3406128369  TIP3      582             0.0000000000
     15215       729  TIP3      OH2            23.7745962815      -14.0305103788       36.9675794783  TIP3      583             0.0000000000
     15216       729  TIP3      H1             23.1221381791      -13.9585654758       36.2260062158  TIP3      583             0.0000000000
     15217       729  TIP3      H2             23.5753559322      -13.2293278202       37.4797101556  TIP3      583             0.0000000000
     15218       730  TIP3      OH2            29.1567023599      -20.8125759698       32.4405437804  TIP3      584             0.0000000000
     15219       730  TIP3      H1             29.4244354126      -21.7427584739       32.4798685616  TIP3      584             0.0000000000
     15220       730  TIP3      H2             29.7983844380      -20.4200700699       31.7948002469  TIP3      584             0.0000000000
     15221       731  TIP3      OH2            26.7702375641      -23.4768951326       25.7994493300  TIP3      585             0.0000000000
     15222       731  TIP3      H1             26.3868033409      -22.6089812223       25.9594221888  TIP3      585             0.0000000000
     15223       731  TIP3      H2             26.3488603473      -23.6793543862       24.9369264235  TIP3      585             0.0000000000
     15224       732  TIP3      OH2            27.9837875886      -20.4934499260       28.2249299519  TIP3      586             0.0000000000
     15225       732  TIP3      H1             27.9124223411      -21.4539812525       28.0695679372  TIP3      586             0.0000000000
     15226       732  TIP3      H2             28.8926130096      -20.2993736617       27.9520363146  TIP3      586             0.0000000000
     15227       733  TIP3      OH2            28.2390241059      -23.1296639902       28.8626742292  TIP3      587             0.0000000000
     15228       733  TIP3      H1             29.0091755694      -23.1989675811       29.4516156029  TIP3      587             0.0000000000
     15229       733  TIP3      H2             28.5870402038      -23.5328001064       28.0325999418  TIP3      587             0.0000000000
     15230       734  TIP3      OH2            27.6301709438      -17.6450609462       24.1974166292  TIP3      588             0.0000000000
     15231       734  TIP3      H1             27.3222691210      -17.3040107816       23.3511562789  TIP3      588             0.0000000000
     15232       734  TIP3      H2             27.3549597537      -16.9746962362       24.8342572617  TIP3      588             0.0000000000
     15233       735  TIP3      OH2            27.0893049971      -18.2593420369       33.6985660951  TIP3      589             0.0000000000
     15234       735  TIP3      H1             26.4098906447      -18.4088955260       33.0259240940  TIP3      589             0.0000000000
     15235       735  TIP3      H2             27.3625440767      -19.1853946947       33.8527937789  TIP3      589             0.0000000000
     15236       736  TIP3      OH2            26.7082286340      -15.7535573639       30.5081450169  TIP3      590             0.0000000000
     15237       736  TIP3      H1             27.3822536707      -15.8104733602       31.2098640125  TIP3      590             0.0000000000
     15238       736  TIP3      H2             26.3608570400      -14.8682637817       30.6597432851  TIP3      590             0.0000000000
     15239       737  TIP3      OH2            29.3003111400      -16.7934036481       34.4413979526  TIP3      591             0.0000000000
     15240       737  TIP3      H1             29.5761808905      -17.1766535633       35.3008319351  TIP3      591             0.0000000000
     15241       737  TIP3      H2             28.4622217153      -17.2749220358       34.2820321044  TIP3      591             0.0000000000
     15242       738  TIP3      OH2            29.7943474298      -23.8161893929       34.3001559865  TIP3      592             0.0000000000
     15243       738  TIP3      H1             30.2999498470      -24.1708978906       35.0629312272  TIP3      592             0.0000000000
     15244       738  TIP3      H2             29.6398779929      -24.6307389549       33.7995893591  TIP3      592             0.0000000000
     15245       739  TIP3      OH2            26.0618053419      -26.1017317561       27.3262963693  TIP3      593             0.0000000000
     15246       739  TIP3      H1             26.7372821861      -26.0885127443       28.0370724592  TIP3      593             0.0000000000
     15247       739  TIP3      H2             26.6291109886      -26.2985580579       26.5605737143  TIP3      593             0.0000000000
     15248       740  TIP3      OH2            29.1421248834      -24.1770391576       26.6046119097  TIP3      594             0.0000000000
     15249       740  TIP3      H1             28.1818735486      -24.1449338563       26.3783840378  TIP3      594             0.0000000000
     15250       740  TIP3      H2             29.2805824701      -25.1065783462       26.9051957336  TIP3      594             0.0000000000
     15251       741  TIP3      OH2            29.6277502807      -18.1442417451       36.6985279467  TIP3      595             0.0000000000
     15252       741  TIP3      H1             30.2831276534      -18.4507386044       37.3496162068  TIP3      595             0.0000000000
     15253       741  TIP3      H2             28.7988108749      -18.1267331965       37.2247619120  TIP3      595             0.0000000000
     15254       742  TIP3      OH2            26.8462257867      -21.0584741757       34.9531616059  TIP3      596             0.0000000000
     15255       742  TIP3      H1             27.0111461440      -21.7806531265       35.5936452618  TIP3      596             0.0000000000
     15256       742  TIP3      H2             26.9893275635      -21.4843574770       34.0963603853  TIP3      596             0.0000000000
     15257       743  TIP3      OH2            27.5072191994      -21.1392345884       22.2935736211  TIP3      597             0.0000000000
     15258       743  TIP3      H1             28.1591262122      -20.4220737721       22.2240583525  TIP3      597             0.0000000000
     15259       743  TIP3      H2             26.7996286317      -20.7729368498       21.7104987831  TIP3      597             0.0000000000
     15260       744  TIP3      OH2            28.7898811909      -26.6360294155       33.9002540897  TIP3      598             0.0000000000
     15261       744  TIP3      H1             28.2002064433      -25.8697441778       33.8528308997  TIP3      598             0.0000000000
     15262       744  TIP3      H2             28.1587907323      -27.3603116428       33.6580069426  TIP3      598             0.0000000000
     15263       745  TIP3      OH2            28.2882635359      -14.8317015237       32.6737035020  TIP3      599             0.0000000000
     15264       745  TIP3      H1             28.8245604112      -15.5567491999       33.0679419837  TIP3      599             0.0000000000
     15265       745  TIP3      H2             28.6255024970      -14.0876191086       33.2142105830  TIP3      599             0.0000000000
     15266       746  TIP3      OH2            29.4614673602      -19.1736182651       22.5989749246  TIP3      600             0.0000000000
     15267       746  TIP3      H1             29.0089526984      -18.9211169822       23.4277434222  TIP3      600             0.0000000000
     15268       746  TIP3      H2             30.1025231965      -18.4504048611       22.5291139155  TIP3      600             0.0000000000
     15269       747  TIP3      OH2            29.3158850600      -28.5277318335       29.6822680695  TIP3      601             0.0000000000
     15270       747  TIP3      H1             29.2932450619      -28.8430906875       28.7544589726  TIP3      601             0.0000000000
     15271       747  TIP3      H2             29.8757172211      -29.2080060220       30.1060164737  TIP3      601             0.0000000000
     15272       748  TIP3      OH2            28.0525834944      -14.6761315952       26.3123707395  TIP3      602             0.0000000000
     15273       748  TIP3      H1             27.1029494345      -14.5487912464       26.1947487209  TIP3      602             0.0000000000
     15274       748  TIP3      H2             28.3847697380      -14.6726817392       25.4023170959  TIP3      602             0.0000000000
     15275       749  TIP3      OH2            27.4043147375      -12.5509453683       37.3943128987  TIP3      603             0.0000000000
     15276       749  TIP3      H1             28.1099441883      -12.8244514674       38.0207431105  TIP3      603             0.0000000000
     15277       749  TIP3      H2             27.0213896652      -13.4079926899       37.1270476514  TIP3      603             0.0000000000
     15278       750  TIP3      OH2            27.2280255619      -18.9375515562       37.8913746786  TIP3      604             0.0000000000
     15279       750  TIP3      H1             27.2302033775      -19.8983956975       37.7326820347  TIP3      604             0.0000000000
     15280       750  TIP3      H2             26.6120279561      -18.6265210044       37.1893391261  TIP3      604             0.0000000000
     15281       751  TIP3      OH2            28.6130060849      -21.8706448687       37.8754017458  TIP3      605             0.0000000000
     15282       751  TIP3      H1             28.1485963270      -22.7154543737       37.9105836310  TIP3      605             0.0000000000
     15283       751  TIP3      H2             28.8057650403      -21.7050880985       38.8225232460  TIP3      605             0.0000000000
     15284       752  TIP3      OH2            29.2166707412      -26.2726702454       37.4712359173  TIP3      606             0.0000000000
     15285       752  TIP3      H1             28.9312561793      -27.1270207449       37.0822187212  TIP3      606             0.0000000000
     15286       752  TIP3      H2             29.1324425298      -26.4610306402       38.4386074229  TIP3      606             0.0000000000
     15287       753  TIP3      OH2            26.5051079052      -11.8465513846       26.2862012796  TIP3      607             0.0000000000
     15288       753  TIP3      H1             25.6262914287      -12.2244649316       26.0384823009  TIP3      607             0.0000000000
     15289       753  TIP3      H2             26.6666006385      -12.3178181266       27.1406218087  TIP3      607             0.0000000000
     15290       754  TIP3      OH2            26.6315259809      -13.3283497783       28.4637921954  TIP3      608             0.0000000000
     15291       754  TIP3      H1             27.1054105157      -14.1555686769       28.2564180745  TIP3      608             0.0000000000
     15292       754  TIP3      H2             27.0706599229      -13.0374514982       29.2807444883  TIP3      608             0.0000000000
     15293       755  TIP3      OH2            27.1623951435      -20.2654358931       30.7046354363  TIP3      609             0.0000000000
     15294       755  TIP3      H1             27.4495971020      -20.3863776210       29.7687913102  TIP3      609             0.0000000000
     15295       755  TIP3      H2             28.0261938256      -20.2218298736       31.1597657727  TIP3      609             0.0000000000
     15296       756  TIP3      OH2            27.0871019176      -25.0243501335       36.4149584957  TIP3      610             0.0000000000
     15297       756  TIP3      H1             27.9327841147      -25.3487021029       36.7964602292  TIP3      610             0.0000000000
     15298       756  TIP3      H2             26.4863977051      -25.7685053932       36.6553301209  TIP3      610             0.0000000000
     15299       757  TIP3      OH2            28.1085684209      -26.0280774813       29.3273435600  TIP3      611             0.0000000000
     15300       757  TIP3      H1             28.4991588649      -26.8888406459       29.6067149278  TIP3      611             0.0000000000
     15301       757  TIP3      H2             28.8140805639      -25.4195660656       29.5943242465  TIP3      611             0.0000000000
     15302       758  TIP3      OH2            26.3746402318      -23.4483528414       30.7718623530  TIP3      612             0.0000000000
     15303       758  TIP3      H1             26.7998084284      -23.7358488547       29.9397427198  TIP3      612             0.0000000000
     15304       758  TIP3      H2             27.0516339398      -22.8184000951       31.0598541530  TIP3      612             0.0000000000
     15305       759  TIP3      OH2            26.7533265020      -27.6276690920       25.0729568069  TIP3      613             0.0000000000
     15306       759  TIP3      H1             25.8183951273      -27.3138120214       25.1136622320  TIP3      613             0.0000000000
     15307       759  TIP3      H2             26.8114810049      -27.7621127461       24.1079988022  TIP3      613             0.0000000000
     15308       760  TIP3      OH2            26.9796475802      -28.2975244528       32.8092380666  TIP3      614             0.0000000000
     15309       760  TIP3      H1             26.2633327111      -28.2026816986       33.4634541228  TIP3      614             0.0000000000
     15310       760  TIP3      H2             26.6805554504      -27.7384632853       32.0618212747  TIP3      614             0.0000000000
     15311       761  TIP3      OH2            28.4567716173      -15.9123841557       37.6731233813  TIP3      615             0.0000000000
     15312       761  TIP3      H1             27.6427402314      -15.7352186266       37.1646347881  TIP3      615             0.0000000000
     15313       761  TIP3      H2             28.4212368524      -15.2882196333       38.4025129396  TIP3      615             0.0000000000
     15314       762  TIP3      OH2            28.9639077918      -11.8742501082       33.6246057350  TIP3      616             0.0000000000
     15315       762  TIP3      H1             28.4737134407      -11.4724201023       32.8878242876  TIP3      616             0.0000000000
     15316       762  TIP3      H2             28.7486444371      -11.2840772810       34.3691380794  TIP3      616             0.0000000000
     15317       763  TIP3      OH2            28.5444355293      -12.9898477246       30.5215089058  TIP3      617             0.0000000000
     15318       763  TIP3      H1             28.2372637096      -13.5298039074       31.2798290383  TIP3      617             0.0000000000
     15319       763  TIP3      H2             29.4414476233      -13.3316951039       30.4086683964  TIP3      617             0.0000000000
     15320       764  TIP3      OH2            28.7691963289      -29.5634010411       27.1807072692  TIP3      618             0.0000000000
     15321       764  TIP3      H1             27.9013007835      -29.3787226293       26.7758320121  TIP3      618             0.0000000000
     15322       764  TIP3      H2             29.2715616906      -29.8026033315       26.3782875696  TIP3      618             0.0000000000
     15323       765  TIP3      OH2            28.0972068601      -29.1512736950       22.2522562234  TIP3      619             0.0000000000
     15324       765  TIP3      H1             27.4471357456      -29.7437247744       21.8022364694  TIP3      619             0.0000000000
     15325       765  TIP3      H2             27.6196378200      -28.3087708226       22.1640808648  TIP3      619             0.0000000000
     15326       766  TIP3      OH2            27.9178655048      -13.5016640703       23.7199488997  TIP3      620             0.0000000000
     15327       766  TIP3      H1             27.3536640660      -13.7590935821       22.9737581038  TIP3      620             0.0000000000
     15328       766  TIP3      H2             27.3816265509      -12.8412254562       24.1933680184  TIP3      620             0.0000000000
     15329       767  TIP3      OH2            28.9267672899      -29.3519083262       36.5913108367  TIP3      621             0.0000000000
     15330       767  TIP3      H1             28.3371585250      -30.1313136734       36.5313877432  TIP3      621             0.0000000000
     15331       767  TIP3      H2             29.7914359550      -29.7576688140       36.4231902666  TIP3      621             0.0000000000
     15332       768  TIP3      OH2           -17.9503814485       -1.0403076819       26.7244915822  TIP3      622             0.0000000000
     15333       768  TIP3      H1            -18.1642616186       -0.1373786823       27.0254471684  TIP3      622             0.0000000000
     15334       768  TIP3      H2            -18.6303883605       -1.1828788492       26.0391947731  TIP3      622             0.0000000000
     15335       769  TIP3      OH2           -19.5155396380       -2.3072155386       30.2918076839  TIP3      623             0.0000000000
     15336       769  TIP3      H1            -19.1597776248       -2.6420656095       31.1398760364  TIP3      623             0.0000000000
     15337       769  TIP3      H2            -20.1469147939       -3.0133145998       30.0665307850  TIP3      623             0.0000000000
     15338       770  TIP3      OH2           -26.9411414616       -2.1721159134       31.7456914146  TIP3      624             0.0000000000
     15339       770  TIP3      H1            -27.1892129687       -2.9946677021       32.1875122756  TIP3      624             0.0000000000
     15340       770  TIP3      H2            -26.1761274978       -1.8999381260       32.2892383878  TIP3      624             0.0000000000
     15341       771  TIP3      OH2           -16.1939806293        1.2189000862       28.9821962777  TIP3      625             0.0000000000
     15342       771  TIP3      H1            -16.2537569124        0.3643247376       29.4327028443  TIP3      625             0.0000000000
     15343       771  TIP3      H2            -15.9410898437        1.7972106056       29.7258186897  TIP3      625             0.0000000000
     15344       772  TIP3      OH2           -26.5399150505        2.0773088263       30.0445598425  TIP3      626             0.0000000000
     15345       772  TIP3      H1            -26.7318396772        1.1561940311       29.7678625869  TIP3      626             0.0000000000
     15346       772  TIP3      H2            -25.5786764266        2.0036684697       30.1283409866  TIP3      626             0.0000000000
     15347       773  TIP3      OH2           -29.2789064023       -4.2644577280       25.0371467998  TIP3      627             0.0000000000
     15348       773  TIP3      H1            -29.7169939394       -3.4322825123       24.7934276315  TIP3      627             0.0000000000
     15349       773  TIP3      H2            -29.8495078949       -4.6405726902       25.7406949434  TIP3      627             0.0000000000
     15350       774  TIP3      OH2           -29.3153129168       -2.1562294254       28.2491836874  TIP3      628             0.0000000000
     15351       774  TIP3      H1            -28.9722964678       -3.0681824686       28.3326278945  TIP3      628             0.0000000000
     15352       774  TIP3      H2            -28.5147364877       -1.6037570150       28.2214333352  TIP3      628             0.0000000000
     15353       775  TIP3      OH2           -18.7725297805        6.7706530380       28.9454284286  TIP3      629             0.0000000000
     15354       775  TIP3      H1            -18.2150338350        5.9986633346       28.7448973043  TIP3      629             0.0000000000
     15355       775  TIP3      H2            -19.2373224216        6.5051585241       29.7528225213  TIP3      629             0.0000000000
     15356       776  TIP3      OH2           -21.1850500712        0.0074840384       30.9446820038  TIP3      630             0.0000000000
     15357       776  TIP3      H1            -20.6883084508       -0.4991205765       30.2779423111  TIP3      630             0.0000000000
     15358       776  TIP3      H2            -20.4762139526        0.5649239927       31.3165248460  TIP3      630             0.0000000000
     15359       777  TIP3      OH2           -12.5914835648       -8.1069293716       30.9360106804  TIP3      631             0.0000000000
     15360       777  TIP3      H1            -12.5696110190       -7.6023245902       31.7737413739  TIP3      631             0.0000000000
     15361       777  TIP3      H2            -11.6815863926       -7.9385637908       30.6250755797  TIP3      631             0.0000000000
     15362       778  TIP3      OH2           -17.6818948579       -5.0779414199       31.1512086380  TIP3      632             0.0000000000
     15363       778  TIP3      H1            -17.6871065969       -6.0259473581       31.3735284191  TIP3      632             0.0000000000
     15364       778  TIP3      H2            -17.6145631100       -5.1333965445       30.1799911322  TIP3      632             0.0000000000
     15365       779  TIP3      OH2           -24.4224757569       -7.2757502797       28.1921687300  TIP3      633             0.0000000000
     15366       779  TIP3      H1            -24.3761579777       -6.4153784004       27.7194889905  TIP3      633             0.0000000000
     15367       779  TIP3      H2            -24.7881659530       -7.8279854172       27.4710503697  TIP3      633             0.0000000000
     15368       780  TIP3      OH2           -17.1535878090       -6.9746104631       27.0395056321  TIP3      634             0.0000000000
     15369       780  TIP3      H1            -16.5970957645       -7.2936434644       27.7820951587  TIP3      634             0.0000000000
     15370       780  TIP3      H2            -16.5559334089       -6.3368046120       26.6248108837  TIP3      634             0.0000000000
     15371       781  TIP3      OH2           -28.3026049444       -4.7938508712       28.8051368340  TIP3      635             0.0000000000
     15372       781  TIP3      H1            -27.5571729387       -5.1188457637       29.3459943450  TIP3      635             0.0000000000
     15373       781  TIP3      H2            -27.9898225107       -5.1031551405       27.9303070718  TIP3      635             0.0000000000
     15374       782  TIP3      OH2           -23.3433557803       -3.0042670433       28.6673633808  TIP3      636             0.0000000000
     15375       782  TIP3      H1            -22.5405264098       -3.4396329832       29.0356953718  TIP3      636             0.0000000000
     15376       782  TIP3      H2            -23.6161685564       -3.6927454154       28.0139193713  TIP3      636             0.0000000000
     15377       783  TIP3      OH2           -12.5641506269       -6.6029119438       33.6021059455  TIP3      637             0.0000000000
     15378       783  TIP3      H1            -13.0742950498       -5.8352404941       33.2633632800  TIP3      637             0.0000000000
     15379       783  TIP3      H2            -11.8585631809       -6.1498013890       34.0855377234  TIP3      637             0.0000000000
     15380       784  TIP3      OH2           -25.6113690494       -8.0934752526       32.1376135823  TIP3      638             0.0000000000
     15381       784  TIP3      H1            -26.1726411664       -7.5951700480       31.5105068914  TIP3      638             0.0000000000
     15382       784  TIP3      H2            -26.0938016332       -7.9307629627       32.9681756583  TIP3      638             0.0000000000
     15383       785  TIP3      OH2           -18.6095027865        1.6241655991       25.8105289929  TIP3      639             0.0000000000
     15384       785  TIP3      H1            -19.1465328241        1.5740355221       24.9984746303  TIP3      639             0.0000000000
     15385       785  TIP3      H2            -19.0295048542        2.3949102357       26.2690699343  TIP3      639             0.0000000000
     15386       786  TIP3      OH2           -23.6382311900       -0.4376556554       31.9702481257  TIP3      640             0.0000000000
     15387       786  TIP3      H1            -24.1046201458        0.3926504709       32.2248173032  TIP3      640             0.0000000000
     15388       786  TIP3      H2            -22.8063724910       -0.0530651662       31.6072098183  TIP3      640             0.0000000000
     15389       787  TIP3      OH2           -15.1183921622       -7.1318953038       28.9472793194  TIP3      641             0.0000000000
     15390       787  TIP3      H1            -14.8076267068       -7.9633706790       29.3200107617  TIP3      641             0.0000000000
     15391       787  TIP3      H2            -14.7836448725       -6.5159596621       29.6473746364  TIP3      641             0.0000000000
     15392       788  TIP3      OH2           -26.2438533090       -6.2622681237       30.1294545989  TIP3      642             0.0000000000
     15393       788  TIP3      H1            -25.6885424733       -5.6809866584       30.6966271680  TIP3      642             0.0000000000
     15394       788  TIP3      H2            -25.5722447450       -6.6341086572       29.5129425325  TIP3      642             0.0000000000
     15395       789  TIP3      OH2           -24.8154492504        1.7283630439       32.9422852483  TIP3      643             0.0000000000
     15396       789  TIP3      H1            -25.0355932439        2.6402775088       32.6909762078  TIP3      643             0.0000000000
     15397       789  TIP3      H2            -25.6407810123        1.5093196387       33.4298998074  TIP3      643             0.0000000000
     15398       790  TIP3      OH2           -28.6023446029        1.5542422634       23.7356649642  TIP3      644             0.0000000000
     15399       790  TIP3      H1            -28.6921423852        2.2738325257       23.0858976774  TIP3      644             0.0000000000
     15400       790  TIP3      H2            -28.2769403714        1.9973360666       24.5315151193  TIP3      644             0.0000000000
     15401       791  TIP3      OH2           -15.2366904793        2.8096100607       31.0627987996  TIP3      645             0.0000000000
     15402       791  TIP3      H1            -16.1728924801        3.0721208100       31.2574628573  TIP3      645             0.0000000000
     15403       791  TIP3      H2            -14.9941688827        3.5742638300       30.5153531631  TIP3      645             0.0000000000
     15404       792  TIP3      OH2           -15.4956823786       -8.9377370993       32.0439151455  TIP3      646             0.0000000000
     15405       792  TIP3      H1            -16.2590220989       -8.4876361712       31.6177449811  TIP3      646             0.0000000000
     15406       792  TIP3      H2            -14.7370947286       -8.6483029409       31.5178647474  TIP3      646             0.0000000000
     15407       793  TIP3      OH2           -22.3138968576      -10.8936201954       29.7275737340  TIP3      647             0.0000000000
     15408       793  TIP3      H1            -22.6959898538      -11.7877030724       29.6475150749  TIP3      647             0.0000000000
     15409       793  TIP3      H2            -23.1248009042      -10.3762072063       29.9716287529  TIP3      647             0.0000000000
     15410       794  TIP3      OH2           -17.0123145914        4.8114008344       27.4020942860  TIP3      648             0.0000000000
     15411       794  TIP3      H1            -16.6525491778        4.0485208428       26.9218150415  TIP3      648             0.0000000000
     15412       794  TIP3      H2            -16.3371292390        5.5064166695       27.1912693510  TIP3      648             0.0000000000
     15413       795  TIP3      OH2           -15.8841578484        2.4907777494       25.8898486023  TIP3      649             0.0000000000
     15414       795  TIP3      H1            -16.7147983186        2.0338071781       25.6671765830  TIP3      649             0.0000000000
     15415       795  TIP3      H2            -15.8158892845        2.2064107195       26.8223979840  TIP3      649             0.0000000000
     15416       796  TIP3      OH2           -14.4202357842        1.1905714286       34.6614150459  TIP3      650             0.0000000000
     15417       796  TIP3      H1            -14.3768312522        0.4630994546       33.9957997044  TIP3      650             0.0000000000
     15418       796  TIP3      H2            -14.1192819033        1.9434277974       34.1064646094  TIP3      650             0.0000000000
     15419       797  TIP3      OH2           -19.3668814494       -1.7011762983       24.4789205544  TIP3      651             0.0000000000
     15420       797  TIP3      H1            -20.0372838037       -0.9760635350       24.4276717226  TIP3      651             0.0000000000
     15421       797  TIP3      H2            -19.0408607098       -1.7077119810       23.5735731022  TIP3      651             0.0000000000
     15422       798  TIP3      OH2           -19.3022331898       -4.0728837518       21.5377855463  TIP3      652             0.0000000000
     15423       798  TIP3      H1            -18.8419306265       -3.3836134673       22.0218103783  TIP3      652             0.0000000000
     15424       798  TIP3      H2            -18.7636935497       -4.1573373525       20.7471425287  TIP3      652             0.0000000000
     15425       799  TIP3      OH2           -12.5405446448       -2.3669090491       32.6626016081  TIP3      653             0.0000000000
     15426       799  TIP3      H1            -13.2583102638       -1.6928024097       32.6904392543  TIP3      653             0.0000000000
     15427       799  TIP3      H2            -12.0037484376       -2.0130847706       31.9214308133  TIP3      653             0.0000000000
     15428       800  TIP3      OH2           -16.0018837131       -2.4105259214       25.3500866100  TIP3      654             0.0000000000
     15429       800  TIP3      H1            -16.5730390750       -1.7766464092       25.8473232363  TIP3      654             0.0000000000
     15430       800  TIP3      H2            -15.2754536556       -2.5647085144       25.9767819208  TIP3      654             0.0000000000
     15431       801  TIP3      OH2           -16.3144815317       -3.4162124672       34.3411479847  TIP3      655             0.0000000000
     15432       801  TIP3      H1            -16.0866540210       -2.5304627165       34.6625310962  TIP3      655             0.0000000000
     15433       801  TIP3      H2            -17.0681660450       -3.1757676499       33.7513724972  TIP3      655             0.0000000000
     15434       802  TIP3      OH2           -24.7114415724       -1.1265162735       27.4296968709  TIP3      656             0.0000000000
     15435       802  TIP3      H1            -24.8503427677       -1.5365217538       26.5535374065  TIP3      656             0.0000000000
     15436       802  TIP3      H2            -24.1343590795       -1.7832076249       27.8746581151  TIP3      656             0.0000000000
     15437       803  TIP3      OH2           -23.3410787011        2.3198297494       29.7433551516  TIP3      657             0.0000000000
     15438       803  TIP3      H1            -23.4667414017        2.4163078719       28.7720674161  TIP3      657             0.0000000000
     15439       803  TIP3      H2            -22.5704467093        1.7478007495       29.8240326390  TIP3      657             0.0000000000
     15440       804  TIP3      OH2           -24.2910463866       -2.7884409445       31.0805923890  TIP3      658             0.0000000000
     15441       804  TIP3      H1            -24.0803969276       -2.7072213822       30.1264834187  TIP3      658             0.0000000000
     15442       804  TIP3      H2            -23.9566095290       -1.9238775145       31.4191845222  TIP3      658             0.0000000000
     15443       805  TIP3      OH2           -17.7715722792        3.3300227603       31.5099299240  TIP3      659             0.0000000000
     15444       805  TIP3      H1            -18.1918306393        4.0321888051       32.0381844439  TIP3      659             0.0000000000
     15445       805  TIP3      H2            -18.1539685079        2.5219409070       31.9132395845  TIP3      659             0.0000000000
     15446       806  TIP3      OH2           -23.4948866627        1.9838050320       35.3342935316  TIP3      660             0.0000000000
     15447       806  TIP3      H1            -24.2115789064        2.5633139323       35.6832949692  TIP3      660             0.0000000000
     15448       806  TIP3      H2            -23.8919984640        1.6665977870       34.4911952646  TIP3      660             0.0000000000
     15449       807  TIP3      OH2           -16.9353843464       -2.5963620887       22.8866577742  TIP3      661             0.0000000000
     15450       807  TIP3      H1            -16.8061252653       -2.5029621851       23.8649836025  TIP3      661             0.0000000000
     15451       807  TIP3      H2            -16.3582730833       -1.9037502988       22.5731962358  TIP3      661             0.0000000000
     15452       808  TIP3      OH2           -26.1918898595       -1.9528472225       34.4715239471  TIP3      662             0.0000000000
     15453       808  TIP3      H1            -25.9877176299       -1.3996871241       35.2523452879  TIP3      662             0.0000000000
     15454       808  TIP3      H2            -27.1284002383       -2.1423539603       34.6721211984  TIP3      662             0.0000000000
     15455       809  TIP3      OH2           -19.4764401134        3.8344420042       26.9430888437  TIP3      663             0.0000000000
     15456       809  TIP3      H1            -18.6989047496        4.1708607644       27.4259472276  TIP3      663             0.0000000000
     15457       809  TIP3      H2            -20.0592752307        4.5974438504       26.9347565139  TIP3      663             0.0000000000
     15458       810  TIP3      OH2           -25.3918362842        3.7466205424       36.1486623769  TIP3      664             0.0000000000
     15459       810  TIP3      H1            -25.4176457341        4.1890253803       35.2734459428  TIP3      664             0.0000000000
     15460       810  TIP3      H2            -26.3486259582        3.5762576493       36.3103417940  TIP3      664             0.0000000000
     15461       811  TIP3      OH2           -25.5340165106       -2.2984497101       25.0262336753  TIP3      665             0.0000000000
     15462       811  TIP3      H1            -25.8808184242       -1.5287933388       24.5309504824  TIP3      665             0.0000000000
     15463       811  TIP3      H2            -26.2701595786       -2.9199949087       24.9444630049  TIP3      665             0.0000000000
     15464       812  TIP3      OH2           -28.8722909151        0.2065024202       33.5389052938  TIP3      666             0.0000000000
     15465       812  TIP3      H1            -29.8170922420        0.1830278290       33.3119210906  TIP3      666             0.0000000000
     15466       812  TIP3      H2            -28.7159484753       -0.7537198984       33.6477780119  TIP3      666             0.0000000000
     15467       813  TIP3      OH2           -29.3253823225        2.9935730188       29.8455757814  TIP3      667             0.0000000000
     15468       813  TIP3      H1            -28.5943046647        2.3516530371       29.8630678034  TIP3      667             0.0000000000
     15469       813  TIP3      H2            -28.9116469636        3.6996562938       30.3677531858  TIP3      667             0.0000000000
     15470       814  TIP3      OH2           -11.7789544717        3.7496046944       36.0194683561  TIP3      668             0.0000000000
     15471       814  TIP3      H1            -11.7992004018        2.8355680833       36.3495042349  TIP3      668             0.0000000000
     15472       814  TIP3      H2            -12.6205253447        4.0652393675       36.4225906519  TIP3      668             0.0000000000
     15473       815  TIP3      OH2           -21.0013110672        3.2736785093       35.1924815364  TIP3      669             0.0000000000
     15474       815  TIP3      H1            -20.7821695512        4.0821998604       35.7155132769  TIP3      669             0.0000000000
     15475       815  TIP3      H2            -21.9210119080        3.0122093602       35.4075067980  TIP3      669             0.0000000000
     15476       816  TIP3      OH2           -20.0176811389        7.0445941612       25.4294778509  TIP3      670             0.0000000000
     15477       816  TIP3      H1            -20.3879915224        6.9563641712       24.5474832718  TIP3      670             0.0000000000
     15478       816  TIP3      H2            -20.1296471881        8.0127419207       25.5602602580  TIP3      670             0.0000000000
     15479       817  TIP3      OH2           -26.5416041154        5.4472232973       27.2904603029  TIP3      671             0.0000000000
     15480       817  TIP3      H1            -26.2702320535        5.3158432712       28.2303410349  TIP3      671             0.0000000000
     15481       817  TIP3      H2            -27.1010313624        4.6508457844       27.1573488272  TIP3      671             0.0000000000
     15482       818  TIP3      OH2           -17.5082856614        6.0944663138       24.6793583077  TIP3      672             0.0000000000
     15483       818  TIP3      H1            -18.3217570252        6.4251468591       25.1050604756  TIP3      672             0.0000000000
     15484       818  TIP3      H2            -17.4648226333        5.1859734592       25.0112479582  TIP3      672             0.0000000000
     15485       819  TIP3      OH2           -14.5811215902       -5.2008769103       36.6030668382  TIP3      673             0.0000000000
     15486       819  TIP3      H1            -15.0720837094       -4.7935866440       35.8686638086  TIP3      673             0.0000000000
     15487       819  TIP3      H2            -14.6876159830       -6.1447800068       36.3808119491  TIP3      673             0.0000000000
     15488       820  TIP3      OH2           -26.8424499053        1.7665743898       34.6125597041  TIP3      674             0.0000000000
     15489       820  TIP3      H1            -26.6795055456        1.4039927921       35.5060226559  TIP3      674             0.0000000000
     15490       820  TIP3      H2            -27.6473637854        1.2575980366       34.3465258599  TIP3      674             0.0000000000
     15491       821  TIP3      OH2           -24.4774113784       -9.5928354551       30.2644271949  TIP3      675             0.0000000000
     15492       821  TIP3      H1            -25.3951811198       -9.7158170764       29.9337661354  TIP3      675             0.0000000000
     15493       821  TIP3      H2            -24.6251253691       -8.7947180058       30.8119382732  TIP3      675             0.0000000000
     15494       822  TIP3      OH2           -19.6202457444      -10.2408790902       33.7358675878  TIP3      676             0.0000000000
     15495       822  TIP3      H1            -19.1008152713      -10.6581094894       34.4603777576  TIP3      676             0.0000000000
     15496       822  TIP3      H2            -20.5246814735      -10.2737519362       34.1041633032  TIP3      676             0.0000000000
     15497       823  TIP3      OH2           -16.9232851024       -6.0988773849       34.5586608337  TIP3      677             0.0000000000
     15498       823  TIP3      H1            -17.4861206225       -6.1627158444       35.3641370334  TIP3      677             0.0000000000
     15499       823  TIP3      H2            -16.7476926555       -5.1397052593       34.5154540504  TIP3      677             0.0000000000
     15500       824  TIP3      OH2           -24.4784976119       -5.2154202014       31.9915166653  TIP3      678             0.0000000000
     15501       824  TIP3      H1            -25.2368179090       -5.0036628137       32.5652664345  TIP3      678             0.0000000000
     15502       824  TIP3      H2            -24.3427737541       -4.3368094852       31.5543249891  TIP3      678             0.0000000000
     15503       825  TIP3      OH2           -24.3858141216       -4.9133846327       27.0681458499  TIP3      679             0.0000000000
     15504       825  TIP3      H1            -25.3535790299       -4.9336506391       26.9129247496  TIP3      679             0.0000000000
     15505       825  TIP3      H2            -24.0786474533       -5.0604469288       26.1426588388  TIP3      679             0.0000000000
     15506       826  TIP3      OH2           -19.1913234606       -4.3165630760       25.3038698939  TIP3      680             0.0000000000
     15507       826  TIP3      H1            -19.2650085242       -3.3586011430       25.0900578870  TIP3      680             0.0000000000
     15508       826  TIP3      H2            -18.4749312106       -4.6391312337       24.7284641555  TIP3      680             0.0000000000
     15509       827  TIP3      OH2           -20.3570807590       -3.6202559521       37.0090859777  TIP3      681             0.0000000000
     15510       827  TIP3      H1            -20.7103207043       -4.5225986004       37.1464045059  TIP3      681             0.0000000000
     15511       827  TIP3      H2            -19.5410891181       -3.7016231279       37.5304525091  TIP3      681             0.0000000000
     15512       828  TIP3      OH2           -17.7960305314       -4.3170917597       28.4241121894  TIP3      682             0.0000000000
     15513       828  TIP3      H1            -18.0916338921       -3.5143867094       27.9569072845  TIP3      682             0.0000000000
     15514       828  TIP3      H2            -17.9123669407       -4.9990639197       27.7310322118  TIP3      682             0.0000000000
     15515       829  TIP3      OH2           -27.0540416460       -4.9524469116       33.0576289106  TIP3      683             0.0000000000
     15516       829  TIP3      H1            -27.0288362539       -4.5072593167       33.9061764357  TIP3      683             0.0000000000
     15517       829  TIP3      H2            -27.2532398859       -5.8651346510       33.3559776623  TIP3      683             0.0000000000
     15518       830  TIP3      OH2           -29.6393292434       -7.7620976402       27.2274846918  TIP3      684             0.0000000000
     15519       830  TIP3      H1            -29.0806860136       -7.6320708572       28.0131590172  TIP3      684             0.0000000000
     15520       830  TIP3      H2            -30.0985505900       -8.5974955434       27.4724965423  TIP3      684             0.0000000000
     15521       831  TIP3      OH2           -28.5686766825       -6.1009007263       22.9571500471  TIP3      685             0.0000000000
     15522       831  TIP3      H1            -28.4497634533       -5.6627721031       22.1117011626  TIP3      685             0.0000000000
     15523       831  TIP3      H2            -28.5650030619       -5.3321468062       23.5574117889  TIP3      685             0.0000000000
     15524       832  TIP3      OH2           -18.4716337864       -2.9766449564       32.6684295389  TIP3      686             0.0000000000
     15525       832  TIP3      H1            -18.1270835861       -3.7625457413       32.1786563967  TIP3      686             0.0000000000
     15526       832  TIP3      H2            -19.1179182876       -3.4241729531       33.2588141235  TIP3      686             0.0000000000
     15527       833  TIP3      OH2           -21.4804596025       -7.5104940045       27.8975443015  TIP3      687             0.0000000000
     15528       833  TIP3      H1            -22.4433488164       -7.3974702460       27.9664225888  TIP3      687             0.0000000000
     15529       833  TIP3      H2            -21.2852502242       -8.0367655858       28.6944839936  TIP3      687             0.0000000000
     15530       834  TIP3      OH2           -27.0191234259       -5.6362173518       26.5753640786  TIP3      688             0.0000000000
     15531       834  TIP3      H1            -27.8003312857       -5.5578073245       26.0008982180  TIP3      688             0.0000000000
     15532       834  TIP3      H2            -26.6055594597       -6.4695979011       26.2684921624  TIP3      688             0.0000000000
     15533       835  TIP3      OH2           -23.5855634520       -5.2864787979       24.5685322042  TIP3      689             0.0000000000
     15534       835  TIP3      H1            -22.6449143258       -5.5642259172       24.5095671228  TIP3      689             0.0000000000
     15535       835  TIP3      H2            -23.7606146147       -4.9083296791       23.7062892941  TIP3      689             0.0000000000
     15536       836  TIP3      OH2           -17.6979915262       -7.9914955547       30.8195021222  TIP3      690             0.0000000000
     15537       836  TIP3      H1            -18.4266184566       -8.0123563593       31.4692417158  TIP3      690             0.0000000000
     15538       836  TIP3      H2            -18.0102734848       -8.6175925841       30.1473364606  TIP3      690             0.0000000000
     15539       837  TIP3      OH2           -14.7410883849        7.6500888900       37.4470276956  TIP3      691             0.0000000000
     15540       837  TIP3      H1            -14.4324187622        8.1030641343       36.6391791057  TIP3      691             0.0000000000
     15541       837  TIP3      H2            -14.0436367801        7.9206900664       38.0617097052  TIP3      691             0.0000000000
     15542       838  TIP3      OH2           -26.5882969492       -0.2888230329       36.7991734199  TIP3      692             0.0000000000
     15543       838  TIP3      H1            -26.3028162251       -0.2132486176       37.7414457539  TIP3      692             0.0000000000
     15544       838  TIP3      H2            -27.4878697497       -0.6454658741       36.8835173618  TIP3      692             0.0000000000
     15545       839  TIP3      OH2           -21.2288181832       -4.5556681786       29.4607321204  TIP3      693             0.0000000000
     15546       839  TIP3      H1            -20.4493207036       -4.8461177501       28.9631851025  TIP3      693             0.0000000000
     15547       839  TIP3      H2            -21.5783126199       -5.3805323608       29.8227456370  TIP3      693             0.0000000000
     15548       840  TIP3      OH2           -25.6860348736       -8.3882795170       26.1462113419  TIP3      694             0.0000000000
     15549       840  TIP3      H1            -26.4450805128       -8.9170558396       26.4666474689  TIP3      694             0.0000000000
     15550       840  TIP3      H2            -25.1121453238       -9.0785955120       25.7777804782  TIP3      694             0.0000000000
     15551       841  TIP3      OH2           -21.9756620724       -6.2554449293       32.2495012535  TIP3      695             0.0000000000
     15552       841  TIP3      H1            -22.7724569947       -5.6903959644       32.1814337516  TIP3      695             0.0000000000
     15553       841  TIP3      H2            -21.2982521091       -5.6253735000       32.5442936296  TIP3      695             0.0000000000
     15554       842  TIP3      OH2           -21.2814441544        0.2572908939       24.4983919458  TIP3      696             0.0000000000
     15555       842  TIP3      H1            -22.0162451714       -0.0674167431       23.9282988314  TIP3      696             0.0000000000
     15556       842  TIP3      H2            -21.7743534759        0.5197800302       25.3148574425  TIP3      696             0.0000000000
     15557       843  TIP3      OH2           -14.3767775945       -0.5038943897       32.6820806776  TIP3      697             0.0000000000
     15558       843  TIP3      H1            -13.8723450228       -0.0022434871       31.9967382721  TIP3      697             0.0000000000
     15559       843  TIP3      H2            -15.2151912856       -0.6220249781       32.1983593886  TIP3      697             0.0000000000
     15560       844  TIP3      OH2           -17.6597069809       -7.2965813319       22.2999767137  TIP3      698             0.0000000000
     15561       844  TIP3      H1            -18.0674557022       -7.1785162662       21.4358275179  TIP3      698             0.0000000000
     15562       844  TIP3      H2            -17.4403915021       -6.3759464831       22.5705821292  TIP3      698             0.0000000000
     15563       845  TIP3      OH2           -20.4604747022        0.6158361008       34.8411521698  TIP3      699             0.0000000000
     15564       845  TIP3      H1            -20.6786696522        0.2443733048       35.7019867673  TIP3      699             0.0000000000
     15565       845  TIP3      H2            -20.6183124579        1.5606156774       35.0252624045  TIP3      699             0.0000000000
     15566       846  TIP3      OH2           -17.0623653010       -5.1287928037       23.7183145875  TIP3      700             0.0000000000
     15567       846  TIP3      H1            -16.3880615664       -5.2895496773       24.4027876508  TIP3      700             0.0000000000
     15568       846  TIP3      H2            -16.9185403340       -4.1920697908       23.4666231876  TIP3      700             0.0000000000
     15569       847  TIP3      OH2           -26.8538390654       -0.5422178256       29.0702581937  TIP3      701             0.0000000000
     15570       847  TIP3      H1            -26.1482403087       -0.7161243370       28.4092972706  TIP3      701             0.0000000000
     15571       847  TIP3      H2            -26.5197445018       -1.0626323880       29.8276833475  TIP3      701             0.0000000000
     15572       848  TIP3      OH2           -19.6388230735        1.7297581525       22.9749806742  TIP3      702             0.0000000000
     15573       848  TIP3      H1            -20.0060160649        2.5985739232       23.2075075219  TIP3      702             0.0000000000
     15574       848  TIP3      H2            -20.2620865131        1.0914042819       23.3908563950  TIP3      702             0.0000000000
     15575       849  TIP3      OH2           -28.9718434985       -2.2388543590       34.7660338484  TIP3      703             0.0000000000
     15576       849  TIP3      H1            -29.0039959422       -3.1245691231       35.1642751915  TIP3      703             0.0000000000
     15577       849  TIP3      H2            -29.9264187473       -2.0804117364       34.5947081384  TIP3      703             0.0000000000
     15578       850  TIP3      OH2           -22.7299538379       -2.2868678018       36.6466824748  TIP3      704             0.0000000000
     15579       850  TIP3      H1            -23.0971347787       -2.9656052467       36.0460907138  TIP3      704             0.0000000000
     15580       850  TIP3      H2            -21.7834273244       -2.5560492996       36.6635605858  TIP3      704             0.0000000000
     15581       851  TIP3      OH2           -17.5549785421        2.7853450211       35.0417005834  TIP3      705             0.0000000000
     15582       851  TIP3      H1            -18.3336132773        2.8478635173       34.4784669330  TIP3      705             0.0000000000
     15583       851  TIP3      H2            -17.8529347262        3.3377669695       35.7967539975  TIP3      705             0.0000000000
     15584       852  TIP3      OH2           -12.5135810479       -4.7198434710       23.4293985672  TIP3      706             0.0000000000
     15585       852  TIP3      H1            -12.8056714326       -4.5058283278       22.5304426448  TIP3      706             0.0000000000
     15586       852  TIP3      H2            -12.0562790852       -3.9226095986       23.7517435276  TIP3      706             0.0000000000
     15587       853  TIP3      OH2           -11.8709702747        1.0179359248       35.8888280950  TIP3      707             0.0000000000
     15588       853  TIP3      H1            -12.8248103814        0.9281908234       35.6988863907  TIP3      707             0.0000000000
     15589       853  TIP3      H2            -11.4959473569        0.8395134793       35.0001642316  TIP3      707             0.0000000000
     15590       854  TIP3      OH2           -14.1725512453        3.9055523070       24.1369030917  TIP3      708             0.0000000000
     15591       854  TIP3      H1            -14.6522571314        3.2653922725       24.7001002968  TIP3      708             0.0000000000
     15592       854  TIP3      H2            -14.3374124997        3.6068319762       23.2386462864  TIP3      708             0.0000000000
     15593       855  TIP3      OH2           -16.5140957594       -1.1991040860       30.6726273459  TIP3      709             0.0000000000
     15594       855  TIP3      H1            -17.4027749354       -1.5486482991       30.4983008942  TIP3      709             0.0000000000
     15595       855  TIP3      H2            -15.9397508258       -1.8353644236       30.2004565162  TIP3      709             0.0000000000
     15596       856  TIP3      OH2           -24.1548738972        3.0534012406       27.1303748364  TIP3      710             0.0000000000
     15597       856  TIP3      H1            -23.9878896273        3.9501545699       26.7598080029  TIP3      710             0.0000000000
     15598       856  TIP3      H2            -24.9997536740        2.8556834114       26.6983547649  TIP3      710             0.0000000000
     15599       857  TIP3      OH2           -27.9347704114       -2.3938186784       21.6109276506  TIP3      711             0.0000000000
     15600       857  TIP3      H1            -27.4813586689       -1.8920867216       22.3167105958  TIP3      711             0.0000000000
     15601       857  TIP3      H2            -28.7620442734       -1.8824036443       21.5230507803  TIP3      711             0.0000000000
     15602       858  TIP3      OH2           -22.6616482627        0.8274454418       26.7252601550  TIP3      712             0.0000000000
     15603       858  TIP3      H1            -23.1494229363        1.6718731624       26.8014896250  TIP3      712             0.0000000000
     15604       858  TIP3      H2            -23.2547076663        0.1729507745       27.1337522793  TIP3      712             0.0000000000
     15605       859  TIP3      OH2           -22.2825682453        4.8470722226       33.2349156420  TIP3      713             0.0000000000
     15606       859  TIP3      H1            -21.5940446630        5.4495163620       32.8909543494  TIP3      713             0.0000000000
     15607       859  TIP3      H2            -21.7378577373        4.2278539585       33.7593000797  TIP3      713             0.0000000000
     15608       860  TIP3      OH2           -24.1926098274        5.4094135222       25.8126229200  TIP3      714             0.0000000000
     15609       860  TIP3      H1            -25.0356556717        5.5846853059       26.2721599232  TIP3      714             0.0000000000
     15610       860  TIP3      H2            -23.6672636049        6.1729293722       26.1411505863  TIP3      714             0.0000000000
     15611       861  TIP3      OH2           -18.9021095185        0.8782452496       32.3602313929  TIP3      715             0.0000000000
     15612       861  TIP3      H1            -19.2810290331        0.5614818868       33.2131049853  TIP3      715             0.0000000000
     15613       861  TIP3      H2            -18.3226747030        0.1488599409       32.0857696478  TIP3      715             0.0000000000
     15614       862  TIP3      OH2           -15.7754369174        5.3220980171       34.9062252005  TIP3      716             0.0000000000
     15615       862  TIP3      H1            -16.6038639314        4.8340802685       34.7216750714  TIP3      716             0.0000000000
     15616       862  TIP3      H2            -15.7133972848        5.9323506017       34.1369328460  TIP3      716             0.0000000000
     15617       863  TIP3      OH2           -11.8480325250        6.2704526912       22.0189291179  TIP3      717             0.0000000000
     15618       863  TIP3      H1            -11.9051202470        5.7638204202       21.1800489658  TIP3      717             0.0000000000
     15619       863  TIP3      H2            -12.6537365687        6.8165964031       22.0050317829  TIP3      717             0.0000000000
     15620       864  TIP3      OH2           -27.5364016421       -7.4668843277       34.1207564285  TIP3      718             0.0000000000
     15621       864  TIP3      H1            -28.4685416452       -7.2218570506       34.0799196030  TIP3      718             0.0000000000
     15622       864  TIP3      H2            -27.6107965905       -8.4053064563       34.3882811457  TIP3      718             0.0000000000
     15623       865  TIP3      OH2           -28.2179011101        3.9134877717       32.8440729846  TIP3      719             0.0000000000
     15624       865  TIP3      H1            -27.6889020328        3.1169721508       33.0316625943  TIP3      719             0.0000000000
     15625       865  TIP3      H2            -28.0469921894        4.4505279960       33.6224232752  TIP3      719             0.0000000000
     15626       866  TIP3      OH2           -26.7194147164       -0.3974963009       23.0808057208  TIP3      720             0.0000000000
     15627       866  TIP3      H1            -27.4954668976        0.1641955369       23.2984687100  TIP3      720             0.0000000000
     15628       866  TIP3      H2            -26.1525396824        0.2391976348       22.5980983278  TIP3      720             0.0000000000
     15629       867  TIP3      OH2           -19.0785023424       -7.4189792592       33.3974778906  TIP3      721             0.0000000000
     15630       867  TIP3      H1            -18.2235958668       -7.2750202308       33.8356883719  TIP3      721             0.0000000000
     15631       867  TIP3      H2            -19.3053785851       -8.3419174293       33.6157356969  TIP3      721             0.0000000000
     15632       868  TIP3      OH2           -18.1062303064       -8.1467669348       24.8340696591  TIP3      722             0.0000000000
     15633       868  TIP3      H1            -17.8817613502       -7.6710276464       24.0082130029  TIP3      722             0.0000000000
     15634       868  TIP3      H2            -17.7448704179       -7.5738590727       25.5465027362  TIP3      722             0.0000000000
     15635       869  TIP3      OH2           -20.5946293524        4.3906689882       22.6061537535  TIP3      723             0.0000000000
     15636       869  TIP3      H1            -21.3224312566        4.8176194515       23.1072495871  TIP3      723             0.0000000000
     15637       869  TIP3      H2            -21.1245755231        3.7290678051       22.1364523617  TIP3      723             0.0000000000
     15638       870  TIP3      OH2           -21.0176273599       -6.2835988187       24.7945307657  TIP3      724             0.0000000000
     15639       870  TIP3      H1            -20.4229128155       -5.4918747098       24.8217167456  TIP3      724             0.0000000000
     15640       870  TIP3      H2            -20.8207299733       -6.6797361226       25.6534473522  TIP3      724             0.0000000000
     15641       871  TIP3      OH2           -19.8997996725       -4.9297386860       34.0072768353  TIP3      725             0.0000000000
     15642       871  TIP3      H1            -19.8319202502       -4.8394205196       34.9634750169  TIP3      725             0.0000000000
     15643       871  TIP3      H2            -19.5803823797       -5.8579133373       33.8550721323  TIP3      725             0.0000000000
     15644       872  TIP3      OH2           -19.9108113324       -9.5145834797       26.2968227262  TIP3      726             0.0000000000
     15645       872  TIP3      H1            -20.3490286929       -8.7653117416       26.7491883563  TIP3      726             0.0000000000
     15646       872  TIP3      H2            -19.1230785326       -9.0593270739       25.9097583029  TIP3      726             0.0000000000
     15647       873  TIP3      OH2           -23.1130943240        5.1925114900       23.0133854161  TIP3      727             0.0000000000
     15648       873  TIP3      H1            -23.6629407445        5.5408750535       22.3018954304  TIP3      727             0.0000000000
     15649       873  TIP3      H2            -23.6175411016        5.4447415534       23.8100735762  TIP3      727             0.0000000000
     15650       874  TIP3      OH2           -14.6943223390       -7.6222573682       35.2905533105  TIP3      728             0.0000000000
     15651       874  TIP3      H1            -15.6168380608       -7.4664925761       35.0222798562  TIP3      728             0.0000000000
     15652       874  TIP3      H2            -14.1867345933       -7.3656349545       34.4942924666  TIP3      728             0.0000000000
     15653       875  TIP3      OH2           -15.3477750747       -3.5386809051       29.2443661787  TIP3      729             0.0000000000
     15654       875  TIP3      H1            -16.2323843577       -3.9381521434       29.1607683901  TIP3      729             0.0000000000
     15655       875  TIP3      H2            -14.8475650434       -4.2108442557       29.7478052531  TIP3      729             0.0000000000
     15656       876  TIP3      OH2           -14.8551345688        5.7489993079       30.7883858171  TIP3      730             0.0000000000
     15657       876  TIP3      H1            -14.7374980965        6.4158491029       30.0781008245  TIP3      730             0.0000000000
     15658       876  TIP3      H2            -13.9160332365        5.5457725499       30.9503393879  TIP3      730             0.0000000000
     15659       877  TIP3      OH2           -27.0274521308      -10.1812216930       29.7334081687  TIP3      731             0.0000000000
     15660       877  TIP3      H1            -27.1966044470      -10.3584194152       28.7823742516  TIP3      731             0.0000000000
     15661       877  TIP3      H2            -27.4625779532      -10.9575105510       30.1352792408  TIP3      731             0.0000000000
     15662       878  TIP3      OH2           -28.0683553781        3.3929314582       26.3449849767  TIP3      732             0.0000000000
     15663       878  TIP3      H1            -28.9383023826        3.1888322000       26.7156494101  TIP3      732             0.0000000000
     15664       878  TIP3      H2            -28.3160616966        3.9277903118       25.5624693171  TIP3      732             0.0000000000
     15665       879  TIP3      OH2           -29.1929842003        6.8918690454       36.6729529067  TIP3      733             0.0000000000
     15666       879  TIP3      H1            -28.2899347284        6.5905202691       36.8620193019  TIP3      733             0.0000000000
     15667       879  TIP3      H2            -29.7479191562        6.1241059451       36.8835889553  TIP3      733             0.0000000000
     15668       880  TIP3      OH2           -25.0491666541        4.8148222071       39.3350777999  TIP3      734             0.0000000000
     15669       880  TIP3      H1            -24.2448019841        5.3542907767       39.2486406134  TIP3      734             0.0000000000
     15670       880  TIP3      H2            -25.0943507442        4.4704457259       38.4254358091  TIP3      734             0.0000000000
     15671       881  TIP3      OH2           -18.0860186093        4.0528448538       37.4367958820  TIP3      735             0.0000000000
     15672       881  TIP3      H1            -18.3625846659        3.2047507511       37.8606831092  TIP3      735             0.0000000000
     15673       881  TIP3      H2            -17.1879162243        4.1162842350       37.8354059827  TIP3      735             0.0000000000
     15674       882  TIP3      OH2           -29.0187190667       -0.4937546231       38.3654902933  TIP3      736             0.0000000000
     15675       882  TIP3      H1            -28.7216194489       -1.3959677044       38.1254730415  TIP3      736             0.0000000000
     15676       882  TIP3      H2            -29.5696994804       -0.6770875140       39.1360185116  TIP3      736             0.0000000000
     15677       883  TIP3      OH2           -22.5535986994        0.3531165016       37.2023517137  TIP3      737             0.0000000000
     15678       883  TIP3      H1            -22.9006990019        0.8620558355       36.4377820292  TIP3      737             0.0000000000
     15679       883  TIP3      H2            -22.7082679429       -0.5933833631       36.9477987997  TIP3      737             0.0000000000
     15680       884  TIP3      OH2           -20.0965405609        0.5286787837       20.0974256780  TIP3      738             0.0000000000
     15681       884  TIP3      H1            -19.7765852517        1.2294928854       20.6771697562  TIP3      738             0.0000000000
     15682       884  TIP3      H2            -21.0686126287        0.6609539428       20.2314166514  TIP3      738             0.0000000000
     15683       885  TIP3      OH2           -16.9235918136        0.1260672430       35.1385038887  TIP3      739             0.0000000000
     15684       885  TIP3      H1            -16.0854878489        0.6398492382       35.1161676693  TIP3      739             0.0000000000
     15685       885  TIP3      H2            -17.5263318148        0.8885377041       35.2077153530  TIP3      739             0.0000000000
     15686       886  TIP3      OH2           -27.6242687247       -2.9064931556       37.7114605913  TIP3      740             0.0000000000
     15687       886  TIP3      H1            -28.3463983826       -3.5661467204       37.6320350607  TIP3      740             0.0000000000
     15688       886  TIP3      H2            -27.2830164848       -3.1149812215       38.5931227690  TIP3      740             0.0000000000
     15689       887  TIP3      OH2           -23.1492534205       -1.1571486451       23.0331351308  TIP3      741             0.0000000000
     15690       887  TIP3      H1            -23.6390426065       -1.8904729524       23.4350259912  TIP3      741             0.0000000000
     15691       887  TIP3      H2            -23.0694933899       -1.4252308767       22.1052910868  TIP3      741             0.0000000000
     15692       888  TIP3      OH2           -24.0688899639       -3.6839542385       34.6838368208  TIP3      742             0.0000000000
     15693       888  TIP3      H1            -24.7734388528       -3.0086567234       34.5797881571  TIP3      742             0.0000000000
     15694       888  TIP3      H2            -23.4238275406       -3.3749832187       34.0072926844  TIP3      742             0.0000000000
     15695       889  TIP3      OH2           -18.9230227399       -0.6988482564       38.1491566529  TIP3      743             0.0000000000
     15696       889  TIP3      H1            -18.2760781018       -1.0794904508       37.5264466391  TIP3      743             0.0000000000
     15697       889  TIP3      H2            -19.1365507694       -1.4611911485       38.7229439513  TIP3      743             0.0000000000
     15698       890  TIP3      OH2           -22.9560280958       -5.9899102500       35.4540706417  TIP3      744             0.0000000000
     15699       890  TIP3      H1            -23.2292413531       -6.7006858964       34.8402122713  TIP3      744             0.0000000000
     15700       890  TIP3      H2            -23.2257497229       -5.1731148581       34.9706643979  TIP3      744             0.0000000000
     15701       891  TIP3      OH2           -23.3228011956       -8.1077055705       33.5865845967  TIP3      745             0.0000000000
     15702       891  TIP3      H1            -22.7030541806       -7.5624348607       33.0434151470  TIP3      745             0.0000000000
     15703       891  TIP3      H2            -24.1113133904       -8.0865146091       33.0048514749  TIP3      745             0.0000000000
     15704       892  TIP3      OH2           -22.1225998684       -2.2360574411       33.3036757077  TIP3      746             0.0000000000
     15705       892  TIP3      H1            -21.3157786314       -1.7288435144       33.1597654437  TIP3      746             0.0000000000
     15706       892  TIP3      H2            -22.7726513192       -1.6074510220       32.9323415066  TIP3      746             0.0000000000
     15707       893  TIP3      OH2           -18.1015145220       -4.6081600090       38.6076549380  TIP3      747             0.0000000000
     15708       893  TIP3      H1            -17.9234479304       -5.5159661807       38.9288621815  TIP3      747             0.0000000000
     15709       893  TIP3      H2            -17.2232108946       -4.2021260704       38.6156383085  TIP3      747             0.0000000000
     15710       894  TIP3      OH2           -16.1678300570       -1.4138626119       37.1945755774  TIP3      748             0.0000000000
     15711       894  TIP3      H1            -16.3911026669       -0.9149585760       36.3765417670  TIP3      748             0.0000000000
     15712       894  TIP3      H2            -15.2410190857       -1.6651144334       37.0095128343  TIP3      748             0.0000000000
     15713       895  TIP3      OH2           -24.8387985187       -5.0604298090       37.9883602772  TIP3      749             0.0000000000
     15714       895  TIP3      H1            -25.7105468847       -5.5196982854       37.9675785272  TIP3      749             0.0000000000
     15715       895  TIP3      H2            -24.7335886908       -4.8319394292       37.0511786210  TIP3      749             0.0000000000
     15716       896  TIP3      OH2           -22.4059542678      -10.5615774527       33.7903105291  TIP3      750             0.0000000000
     15717       896  TIP3      H1            -22.6967068087       -9.6203870638       33.8856260890  TIP3      750             0.0000000000
     15718       896  TIP3      H2            -23.1924311735      -10.9480413138       33.3877942091  TIP3      750             0.0000000000
     15719       897  TIP3      OH2           -21.3546624895       -6.1674463190       37.7415276454  TIP3      751             0.0000000000
     15720       897  TIP3      H1            -22.0337375184       -6.3772863689       38.4110913928  TIP3      751             0.0000000000
     15721       897  TIP3      H2            -21.8954254491       -6.2742035249       36.9207179147  TIP3      751             0.0000000000
     15722       898  TIP3      OH2           -18.7186619110       -6.7535867312       36.6065355991  TIP3      752             0.0000000000
     15723       898  TIP3      H1            -19.6372642262       -6.7924852903       36.9285300909  TIP3      752             0.0000000000
     15724       898  TIP3      H2            -18.3001267732       -7.3868976715       37.2410817397  TIP3      752             0.0000000000
     15725       899  TIP3      OH2           -17.5886225723       -8.4306674883       38.2920925451  TIP3      753             0.0000000000
     15726       899  TIP3      H1            -17.2509349222       -9.3185007776       38.5015104005  TIP3      753             0.0000000000
     15727       899  TIP3      H2            -17.5516426170       -7.9547698263       39.1578592369  TIP3      753             0.0000000000
     15728       900  TIP3      OH2           -26.9141900991       -6.7766522263       37.8478180585  TIP3      754             0.0000000000
     15729       900  TIP3      H1            -26.8810636549       -7.5754787448       37.3018839542  TIP3      754             0.0000000000
     15730       900  TIP3      H2            -27.1267937808       -7.1767987096       38.7285317009  TIP3      754             0.0000000000
     15731       901  TIP3      OH2           -22.7445566020      -11.0162454177       36.4950561513  TIP3      755             0.0000000000
     15732       901  TIP3      H1            -21.8552547894      -11.4194093901       36.5703992519  TIP3      755             0.0000000000
     15733       901  TIP3      H2            -22.7425594032      -10.9277055418       35.5180717571  TIP3      755             0.0000000000
     15734       902  TIP3      OH2           -22.7472754877       -9.8477776989       39.3047186903  TIP3      756             0.0000000000
     15735       902  TIP3      H1            -22.7824414523      -10.2184485752       38.4011130258  TIP3      756             0.0000000000
     15736       902  TIP3      H2            -22.9275824818       -8.9088257485       39.1009060967  TIP3      756             0.0000000000
     15737       903  TIP3      OH2            30.1644442349        6.9319592257       25.9450614893  TIP3      757             0.0000000000
     15738       903  TIP3      H1             30.0520770353        6.1724676394       25.3531243231  TIP3      757             0.0000000000
     15739       903  TIP3      H2             30.4409239314        6.4545981758       26.7679914950  TIP3      757             0.0000000000
     15740       904  TIP3      OH2           -29.5693260662        5.4387191974       28.0638295165  TIP3      758             0.0000000000
     15741       904  TIP3      H1            -30.1430887636        4.7215177826       28.3934419713  TIP3      758             0.0000000000
     15742       904  TIP3      H2            -29.0500484249        5.7177795115       28.8458311261  TIP3      758             0.0000000000
     15743       905  TIP3      OH2           -12.0682760026        5.6773365920       30.6966889585  TIP3      759             0.0000000000
     15744       905  TIP3      H1            -11.7168011747        5.8575129527       31.5843702712  TIP3      759             0.0000000000
     15745       905  TIP3      H2            -11.7817767387        6.4766228322       30.2307017525  TIP3      759             0.0000000000
     15746       906  TIP3      OH2           -12.3388565655        5.5653083240       33.9964544964  TIP3      760             0.0000000000
     15747       906  TIP3      H1            -12.7682904496        4.8158361870       33.5203721622  TIP3      760             0.0000000000
     15748       906  TIP3      H2            -12.0453966029        5.0672381428       34.7891842195  TIP3      760             0.0000000000
     15749       907  TIP3      OH2           -13.4992803175        1.4699590918       38.9082294854  TIP3      761             0.0000000000
     15750       907  TIP3      H1            -14.3230735315        1.6269956475       39.4274226756  TIP3      761             0.0000000000
     15751       907  TIP3      H2            -13.1166415881        2.3759891000       38.9897614716  TIP3      761             0.0000000000
     15752       908  TIP3      OH2           -12.0764806898       -2.1346236576       26.1714528856  TIP3      762             0.0000000000
     15753       908  TIP3      H1            -12.8650678933       -2.6247892275       26.4841533104  TIP3      762             0.0000000000
     15754       908  TIP3      H2            -11.5926806764       -1.9763313526       27.0090682079  TIP3      762             0.0000000000
     15755       909  TIP3      OH2           -12.9062570567        0.4985957705       30.7053702755  TIP3      763             0.0000000000
     15756       909  TIP3      H1            -12.0789995122       -0.0042244194       30.5563748817  TIP3      763             0.0000000000
     15757       909  TIP3      H2            -12.7069345000        1.3498438990       30.2616707005  TIP3      763             0.0000000000
     15758       910  TIP3      OH2           -13.8000015911        3.4639015237       33.2561932333  TIP3      764             0.0000000000
     15759       910  TIP3      H1            -14.5855156725        3.7941370784       33.7278721091  TIP3      764             0.0000000000
     15760       910  TIP3      H2            -14.2036468317        3.0939608852       32.4392633580  TIP3      764             0.0000000000
     15761       911  TIP3      OH2           -14.0067336161       -3.9215158214       26.8019162713  TIP3      765             0.0000000000
     15762       911  TIP3      H1            -14.4338316674       -4.7846795957       26.6279590140  TIP3      765             0.0000000000
     15763       911  TIP3      H2            -14.4149621422       -3.6759367578       27.6627513985  TIP3      765             0.0000000000
     15764       912  TIP3      OH2           -29.4658010074       -1.4926926703       30.9556028580  TIP3      766             0.0000000000
     15765       912  TIP3      H1            -29.4685005857       -1.6489355840       29.9923468666  TIP3      766             0.0000000000
     15766       912  TIP3      H2            -28.5024410453       -1.4811407433       31.1277886961  TIP3      766             0.0000000000
     15767       913  TIP3      OH2           -13.2490798644       -1.8972150130       36.3601367899  TIP3      767             0.0000000000
     15768       913  TIP3      H1            -12.8811127298       -2.7039152312       36.8068322419  TIP3      767             0.0000000000
     15769       913  TIP3      H2            -12.6542611594       -1.8109508882       35.5823862227  TIP3      767             0.0000000000
     15770       914  TIP3      OH2           -12.2592506329       -4.1812425349       37.3130120470  TIP3      768             0.0000000000
     15771       914  TIP3      H1            -13.0670514978       -4.6260730314       36.9673911702  TIP3      768             0.0000000000
     15772       914  TIP3      H2            -11.6111908729       -4.9076627949       37.1839569773  TIP3      768             0.0000000000
     15773       915  TIP3      OH2           -15.0765293530       -6.0449578521       25.4559578621  TIP3      769             0.0000000000
     15774       915  TIP3      H1            -14.8012872034       -6.9918177211       25.4537864273  TIP3      769             0.0000000000
     15775       915  TIP3      H2            -14.3342548015       -5.6858191700       24.9552971548  TIP3      769             0.0000000000
     15776       916  TIP3      OH2           -13.9352303666       -5.3973608895       30.6424449638  TIP3      770             0.0000000000
     15777       916  TIP3      H1            -12.9475382426       -5.3269030665       30.6531629752  TIP3      770             0.0000000000
     15778       916  TIP3      H2            -14.1258472252       -5.0033561806       31.5193737262  TIP3      770             0.0000000000
     15779       917  TIP3      OH2           -14.0450310377       -4.4844800034       33.1042083290  TIP3      771             0.0000000000
     15780       917  TIP3      H1            -14.9382096227       -4.1528242903       33.3292165190  TIP3      771             0.0000000000
     15781       917  TIP3      H2            -13.5243462383       -3.6517972631       32.9725718730  TIP3      771             0.0000000000
     15782       918  TIP3      OH2           -29.1069556474       -5.1241894664       37.6105639344  TIP3      772             0.0000000000
     15783       918  TIP3      H1            -28.3305895704       -5.7251147860       37.5644558918  TIP3      772             0.0000000000
     15784       918  TIP3      H2            -29.7915461550       -5.6401828561       37.1298825407  TIP3      772             0.0000000000
     15785       919  TIP3      OH2           -11.8469194401      -10.2020116358       38.3524678212  TIP3      773             0.0000000000
     15786       919  TIP3      H1            -11.4380418000      -10.9139138420       37.8170860924  TIP3      773             0.0000000000
     15787       919  TIP3      H2            -11.9475931538       -9.4878803577       37.6812012839  TIP3      773             0.0000000000
     15788       920  TIP3      OH2           -14.0525542749       -8.4747427603       25.2001220476  TIP3      774             0.0000000000
     15789       920  TIP3      H1            -13.7066211949       -8.8153133645       26.0495004069  TIP3      774             0.0000000000
     15790       920  TIP3      H2            -14.6509335594       -9.1949790507       24.9277757892  TIP3      774             0.0000000000
     15791       921  TIP3      OH2           -28.7898576998       -7.7634473360       29.9150165726  TIP3      775             0.0000000000
     15792       921  TIP3      H1            -28.5515739474       -8.6777031362       30.1406887926  TIP3      775             0.0000000000
     15793       921  TIP3      H2            -27.9982802343       -7.2590563947       30.1872905099  TIP3      775             0.0000000000
     15794       922  TIP3      OH2           -29.9182132807       -5.0654386128       30.9472567031  TIP3      776             0.0000000000
     15795       922  TIP3      H1            -29.4437519283       -5.2899299861       30.1217134982  TIP3      776             0.0000000000
     15796       922  TIP3      H2            -29.3432327173       -4.3842380102       31.3094813499  TIP3      776             0.0000000000
     15797       923  TIP3      OH2           -12.6375985757       -8.0368785927       36.8837619415  TIP3      777             0.0000000000
     15798       923  TIP3      H1            -13.1396531014       -7.5462468541       37.5676496790  TIP3      777             0.0000000000
     15799       923  TIP3      H2            -13.3614156293       -8.1698771748       36.2223245207  TIP3      777             0.0000000000
     15800       924  TIP3      OH2           -29.0112308641       -8.7058296432       24.2789228049  TIP3      778             0.0000000000
     15801       924  TIP3      H1            -29.5364419808       -8.0770158744       24.7839861007  TIP3      778             0.0000000000
     15802       924  TIP3      H2            -28.7724393412       -8.2084465430       23.4729178556  TIP3      778             0.0000000000
     15803       925  TIP3      OH2           -15.3309857639        6.7405493853       26.7998359012  TIP3      779             0.0000000000
     15804       925  TIP3      H1            -14.5393716379        6.6427064200       26.2371347865  TIP3      779             0.0000000000
     15805       925  TIP3      H2            -15.0288727456        7.3023535657       27.5381369020  TIP3      779             0.0000000000
     15806       926  TIP3      OH2           -29.6079676869       -9.4547136796       33.3767766980  TIP3      780             0.0000000000
     15807       926  TIP3      H1            -30.3378781655      -10.0300604980       33.0892651208  TIP3      780             0.0000000000
     15808       926  TIP3      H2            -30.1227114308       -8.7140979250       33.7591099488  TIP3      780             0.0000000000
     15809       927  TIP3      OH2           -27.9161307630        3.2668385522       36.8958080462  TIP3      781             0.0000000000
     15810       927  TIP3      H1            -28.5840458589        2.9898025577       36.2492107939  TIP3      781             0.0000000000
     15811       927  TIP3      H2            -28.4078519298        3.1646689257       37.7234727789  TIP3      781             0.0000000000
     15812       928  TIP3      OH2           -24.9253105297        4.6223012899       33.5818285508  TIP3      782             0.0000000000
     15813       928  TIP3      H1            -24.9134806894        5.5580111705       33.2838977807  TIP3      782             0.0000000000
     15814       928  TIP3      H2            -23.9640860409        4.4476929561       33.6556783245  TIP3      782             0.0000000000
     15815       929  TIP3      OH2           -20.4425778890        5.8482964257       36.1574424322  TIP3      783             0.0000000000
     15816       929  TIP3      H1            -20.5102622656        5.7629044206       37.1375948144  TIP3      783             0.0000000000
     15817       929  TIP3      H2            -19.5512851431        6.2537978965       36.0558491720  TIP3      783             0.0000000000
     15818       930  TIP3      OH2           -18.2757376273        7.4132117778       35.8880938374  TIP3      784             0.0000000000
     15819       930  TIP3      H1            -17.4889465034        6.8636048854       35.7875694115  TIP3      784             0.0000000000
     15820       930  TIP3      H2            -18.0714757982        7.8934111691       36.7170714031  TIP3      784             0.0000000000
     15821       931  TIP3      OH2           -13.3132847093      -10.8403835289       34.8504773554  TIP3      785             0.0000000000
     15822       931  TIP3      H1            -14.1515652816      -10.5537820502       34.4661522941  TIP3      785             0.0000000000
     15823       931  TIP3      H2            -13.2151471404      -11.7345262852       34.4595558083  TIP3      785             0.0000000000
     15824       932  TIP3      OH2           -27.6380571255        7.8939165576       33.0838500924  TIP3      786             0.0000000000
     15825       932  TIP3      H1            -28.3202319216        8.4531070415       32.6614070509  TIP3      786             0.0000000000
     15826       932  TIP3      H2            -27.7593117811        8.1085283228       34.0168369029  TIP3      786             0.0000000000
     15827       933  TIP3      OH2           -24.9774645128        7.3173091648       32.5113966281  TIP3      787             0.0000000000
     15828       933  TIP3      H1            -25.9470383429        7.4180980871       32.6430330027  TIP3      787             0.0000000000
     15829       933  TIP3      H2            -24.8348495252        7.9314483187       31.7592958384  TIP3      787             0.0000000000
     15830       934  TIP3      OH2           -20.4754233235        6.9211816699       31.8207097798  TIP3      788             0.0000000000
     15831       934  TIP3      H1            -21.3632309837        7.3036627066       31.8752264199  TIP3      788             0.0000000000
     15832       934  TIP3      H2            -19.9822961196        7.6377494461       32.2789526343  TIP3      788             0.0000000000
     15833       935  TIP3      OH2           -18.2547351699        5.6147160849       33.0120376828  TIP3      789             0.0000000000
     15834       935  TIP3      H1            -18.9550729822        6.1147238588       32.5526248880  TIP3      789             0.0000000000
     15835       935  TIP3      H2            -17.5001381483        6.2237684034       32.9097978528  TIP3      789             0.0000000000
     15836       936  TIP3      OH2           -15.5946676171        7.2006690751       32.8310695439  TIP3      790             0.0000000000
     15837       936  TIP3      H1            -15.4998398823        8.0702935508       32.3997193881  TIP3      790             0.0000000000
     15838       936  TIP3      H2            -15.3310003837        6.6187054099       32.0760488900  TIP3      790             0.0000000000
     15839       937  TIP3      OH2           -28.1228307686        5.9224781628       30.4194325293  TIP3      791             0.0000000000
     15840       937  TIP3      H1            -28.2611119227        5.4802580602       31.2744798672  TIP3      791             0.0000000000
     15841       937  TIP3      H2            -27.1813802572        5.6599881329       30.2607157285  TIP3      791             0.0000000000
     15842       938  TIP3      OH2           -25.7624946790        4.9454312132       29.7930144224  TIP3      792             0.0000000000
     15843       938  TIP3      H1            -25.7994888148        3.9709784722       29.8652527907  TIP3      792             0.0000000000
     15844       938  TIP3      H2            -24.8354080090        5.1415902689       30.0486664915  TIP3      792             0.0000000000
     15845       939  TIP3      OH2           -23.3018908312        5.2203757043       30.7150743309  TIP3      793             0.0000000000
     15846       939  TIP3      H1            -22.9481648747        4.3596844749       30.4180135809  TIP3      793             0.0000000000
     15847       939  TIP3      H2            -23.2399847800        5.1412471147       31.6912381290  TIP3      793             0.0000000000
     15848       940  TIP3      OH2           -20.1724180984       -9.3381636122       29.9272360550  TIP3      794             0.0000000000
     15849       940  TIP3      H1            -20.9734773456       -9.8671235976       30.0976094169  TIP3      794             0.0000000000
     15850       940  TIP3      H2            -19.8296078099       -9.7480134018       29.1263385900  TIP3      794             0.0000000000
     15851       941  TIP3      OH2           -14.6478365094      -10.9590205669       29.0012948496  TIP3      795             0.0000000000
     15852       941  TIP3      H1            -13.8961852915      -10.4403024940       28.6201118441  TIP3      795             0.0000000000
     15853       941  TIP3      H2            -15.3897966062      -10.4673545355       28.6102722135  TIP3      795             0.0000000000
     15854       942  TIP3      OH2           -12.9492748667       -9.6409327232       27.5142189671  TIP3      796             0.0000000000
     15855       942  TIP3      H1            -12.3023849373      -10.1910656378       27.0188734838  TIP3      796             0.0000000000
     15856       942  TIP3      H2            -12.3527192663       -8.9197205228       27.8174021813  TIP3      796             0.0000000000
     15857       943  TIP3      OH2           -27.5521301024      -10.4483745480       26.9863412249  TIP3      797             0.0000000000
     15858       943  TIP3      H1            -28.3607081651      -10.5391183761       26.4493688676  TIP3      797             0.0000000000
     15859       943  TIP3      H2            -27.1074487940      -11.3124769382       26.8615096041  TIP3      797             0.0000000000
     15860       944  TIP3      OH2           -28.8646996581      -11.1424985358       22.7609108921  TIP3      798             0.0000000000
     15861       944  TIP3      H1            -28.4448318288      -10.3169653721       22.4472296097  TIP3      798             0.0000000000
     15862       944  TIP3      H2            -29.3221799997      -10.8044311810       23.5514834184  TIP3      798             0.0000000000
     15863       945  TIP3      OH2           -23.4264852181      -10.8727084575       26.7172621861  TIP3      799             0.0000000000
     15864       945  TIP3      H1            -22.6618987543      -10.6472569315       26.1679273554  TIP3      799             0.0000000000
     15865       945  TIP3      H2            -23.1333204373      -10.6310725318       27.6119771904  TIP3      799             0.0000000000
     15866       946  TIP3      OH2           -17.6573808416      -10.3007096709       28.0691027974  TIP3      800             0.0000000000
     15867       946  TIP3      H1            -18.0459796014      -10.3412983134       27.1822944251  TIP3      800             0.0000000000
     15868       946  TIP3      H2            -18.0001696189      -11.1287109624       28.4562632614  TIP3      800             0.0000000000
     15869       947  TIP3      OH2           -15.7424193968      -10.6132174808       24.0972718789  TIP3      801             0.0000000000
     15870       947  TIP3      H1            -16.4851107195       -9.9957875047       24.1687895840  TIP3      801             0.0000000000
     15871       947  TIP3      H2            -16.1762295719      -11.4342370296       24.3952113662  TIP3      801             0.0000000000
     15872       948  TIP3      OH2           -28.9703795533        5.0505349089       24.2168918108  TIP3      802             0.0000000000
     15873       948  TIP3      H1            -29.5501565893        5.1466098330       23.4347620250  TIP3      802             0.0000000000
     15874       948  TIP3      H2            -28.2151086529        5.5840571276       23.9204852027  TIP3      802             0.0000000000
     15875       949  TIP3      OH2           -27.5320852159       -8.9081762092       21.5979249858  TIP3      803             0.0000000000
     15876       949  TIP3      H1            -27.6458380400       -9.2772034884       20.7027021166  TIP3      803             0.0000000000
     15877       949  TIP3      H2            -26.6558965442       -9.2029519012       21.8558476472  TIP3      803             0.0000000000
     15878       950  TIP3      OH2           -21.9181943802       -8.8048578846       24.1081399873  TIP3      804             0.0000000000
     15879       950  TIP3      H1            -21.2745470839       -9.0021002973       24.7989167136  TIP3      804             0.0000000000
     15880       950  TIP3      H2            -21.7028692505       -7.8608558712       23.9414819475  TIP3      804             0.0000000000
     15881       951  TIP3      OH2           -13.2795057874        6.2298315918       25.0191895372  TIP3      805             0.0000000000
     15882       951  TIP3      H1            -13.4191974853        5.3374995561       24.6126864925  TIP3      805             0.0000000000
     15883       951  TIP3      H2            -13.4384063302        6.7886469562       24.2323609154  TIP3      805             0.0000000000
     15884       952  TIP3      OH2           -27.8420176367       -9.7854633480       36.1995015150  TIP3      806             0.0000000000
     15885       952  TIP3      H1            -28.2769000358      -10.5906117796       36.5380478286  TIP3      806             0.0000000000
     15886       952  TIP3      H2            -27.0980169724       -9.7268953772       36.8242896282  TIP3      806             0.0000000000
     15887       953  TIP3      OH2           -25.8429305971      -10.2780631955       38.0808691756  TIP3      807             0.0000000000
     15888       953  TIP3      H1            -25.0576958148      -10.7042459389       37.6773999140  TIP3      807             0.0000000000
     15889       953  TIP3      H2            -26.3133952784      -11.0523443821       38.4570427146  TIP3      807             0.0000000000
     15890       954  TIP3      OH2           -17.4220988872      -11.1881315617       38.6539954126  TIP3      808             0.0000000000
     15891       954  TIP3      H1            -17.2901107937      -11.5426379758       39.5516753176  TIP3      808             0.0000000000
     15892       954  TIP3      H2            -16.5511572134      -11.4045366773       38.2534702962  TIP3      808             0.0000000000
     15893       955  TIP3      OH2           -13.9640749950        5.0448551854       36.8105809445  TIP3      809             0.0000000000
     15894       955  TIP3      H1            -14.7230342534        5.0402964542       36.1820155149  TIP3      809             0.0000000000
     15895       955  TIP3      H2            -13.8672506721        5.9972277020       36.9953928869  TIP3      809             0.0000000000
     15896       956  TIP3      OH2             0.8492931158       -1.0504807220       26.6594687359  TIP3      810             0.0000000000
     15897       956  TIP3      H1              0.6788543513       -0.3247819101       27.2915430405  TIP3      810             0.0000000000
     15898       956  TIP3      H2              0.1005058623       -0.9404170329       26.0507021146  TIP3      810             0.0000000000
     15899       957  TIP3      OH2            -0.5674120941       -2.3875322878       29.9015188331  TIP3      811             0.0000000000
     15900       957  TIP3      H1             -0.7186895441       -2.0937239280       30.8250770105  TIP3      811             0.0000000000
     15901       957  TIP3      H2             -1.4767476118       -2.4115717056       29.5483593357  TIP3      811             0.0000000000
     15902       958  TIP3      OH2            -8.6690787231       -1.8867707152       32.5009458290  TIP3      812             0.0000000000
     15903       958  TIP3      H1             -9.0941926573       -2.7574775165       32.5714679335  TIP3      812             0.0000000000
     15904       958  TIP3      H2             -8.0292588202       -2.0732823586       31.7782389329  TIP3      812             0.0000000000
     15905       959  TIP3      OH2             2.7091383546        0.8365276146       28.8650533337  TIP3      813             0.0000000000
     15906       959  TIP3      H1              2.7700942731        0.0461985938       29.4275840888  TIP3      813             0.0000000000
     15907       959  TIP3      H2              2.7236708528        1.5237196731       29.5452701570  TIP3      813             0.0000000000
     15908       960  TIP3      OH2            -7.2868008377        2.1117114121       30.0697982110  TIP3      814             0.0000000000
     15909       960  TIP3      H1             -7.6172034092        1.2522603795       29.7443598763  TIP3      814             0.0000000000
     15910       960  TIP3      H2             -6.3186402090        1.9956135075       29.9703672566  TIP3      814             0.0000000000
     15911       961  TIP3      OH2           -10.6539156017       -4.6621498516       25.6767629752  TIP3      815             0.0000000000
     15912       961  TIP3      H1            -10.8729504593       -3.7678021897       25.9963618349  TIP3      815             0.0000000000
     15913       961  TIP3      H2            -11.5502200602       -4.9974527955       25.5460148764  TIP3      815             0.0000000000
     15914       962  TIP3      OH2           -10.5012658224       -2.0557427660       28.3450749812  TIP3      816             0.0000000000
     15915       962  TIP3      H1            -10.1052380602       -2.9497748331       28.3536128678  TIP3      816             0.0000000000
     15916       962  TIP3      H2             -9.7178505173       -1.4688028963       28.2832746947  TIP3      816             0.0000000000
     15917       963  TIP3      OH2             0.2012928042        6.2811466319       28.6545032757  TIP3      817             0.0000000000
     15918       963  TIP3      H1              0.9042269897        5.7508952252       28.1990265673  TIP3      817             0.0000000000
     15919       963  TIP3      H2             -0.0847252809        5.6103621830       29.2907138743  TIP3      817             0.0000000000
     15920       964  TIP3      OH2            -2.6353516122        1.0068246744       31.3435735162  TIP3      818             0.0000000000
     15921       964  TIP3      H1             -2.3482083628        0.3553180695       30.6864369046  TIP3      818             0.0000000000
     15922       964  TIP3      H2             -1.7757776096        1.2904469153       31.7330262279  TIP3      818             0.0000000000
     15923       965  TIP3      OH2             6.3528389278       -8.2211436242       31.1939419767  TIP3      819             0.0000000000
     15924       965  TIP3      H1              6.6646132113       -7.8375464104       32.0506947315  TIP3      819             0.0000000000
     15925       965  TIP3      H2              6.7710123981       -9.0933840779       31.2500783412  TIP3      819             0.0000000000
     15926       966  TIP3      OH2             1.3529749512       -4.7549410351       31.3477699167  TIP3      820             0.0000000000
     15927       966  TIP3      H1              0.9576123451       -4.8094832872       32.2464571660  TIP3      820             0.0000000000
     15928       966  TIP3      H2              0.6686108509       -5.1821882118       30.7979723606  TIP3      820             0.0000000000
     15929       967  TIP3      OH2            -6.0041324852       -7.2639195753       28.3079634248  TIP3      821             0.0000000000
     15930       967  TIP3      H1             -5.6610455681       -6.4135838931       27.9652565310  TIP3      821             0.0000000000
     15931       967  TIP3      H2             -6.5232264997       -7.5616968975       27.5340904973  TIP3      821             0.0000000000
     15932       968  TIP3      OH2             2.1875282209       -7.2754569204       26.6290402537  TIP3      822             0.0000000000
     15933       968  TIP3      H1              2.6696880533       -7.3863354188       27.4766122849  TIP3      822             0.0000000000
     15934       968  TIP3      H2              1.9504676911       -6.3390243626       26.6532883454  TIP3      822             0.0000000000
     15935       969  TIP3      OH2            -9.6808599373       -4.8554816065       28.7146119526  TIP3      823             0.0000000000
     15936       969  TIP3      H1             -8.9406083617       -4.3960383008       29.1729742648  TIP3      823             0.0000000000
     15937       969  TIP3      H2             -9.1696659851       -5.1969742241       27.9533353439  TIP3      823             0.0000000000
     15938       970  TIP3      OH2            -4.5906573870       -2.8267007227       27.8587394744  TIP3      824             0.0000000000
     15939       970  TIP3      H1             -3.7659482354       -3.1202072536       28.2801608202  TIP3      824             0.0000000000
     15940       970  TIP3      H2             -4.9700384834       -3.7152956047       27.6644818142  TIP3      824             0.0000000000
     15941       971  TIP3      OH2             6.7113719288       -6.5068081043       33.4028436738  TIP3      825             0.0000000000
     15942       971  TIP3      H1              6.1890635844       -5.7345014391       33.0906813998  TIP3      825             0.0000000000
     15943       971  TIP3      H2              6.7005609387       -6.3661183883       34.3602752806  TIP3      825             0.0000000000
     15944       972  TIP3      OH2            -7.0857229385       -8.5277530972       32.0781314983  TIP3      826             0.0000000000
     15945       972  TIP3      H1             -6.8874032710       -7.8582902361       31.3908832335  TIP3      826             0.0000000000
     15946       972  TIP3      H2             -7.8867556873       -8.1442139364       32.4653791585  TIP3      826             0.0000000000
     15947       973  TIP3      OH2            -0.1619490697        1.6827264192       25.9811947484  TIP3      827             0.0000000000
     15948       973  TIP3      H1             -0.3204554635        1.5950723846       25.0323941911  TIP3      827             0.0000000000
     15949       973  TIP3      H2             -0.2441975372        2.6446598952       26.1115780218  TIP3      827             0.0000000000
     15950       974  TIP3      OH2            -4.4388016272       -0.4382158257       32.7863506073  TIP3      828             0.0000000000
     15951       974  TIP3      H1             -5.1933125537        0.0703271227       33.1428657339  TIP3      828             0.0000000000
     15952       974  TIP3      H2             -3.9450602089        0.2556948501       32.3083546979  TIP3      828             0.0000000000
     15953       975  TIP3      OH2             3.4578441116       -6.9859893659       29.0392181164  TIP3      829             0.0000000000
     15954       975  TIP3      H1              3.7068375076       -7.8711676782       29.3907342958  TIP3      829             0.0000000000
     15955       975  TIP3      H2              2.8370778357       -6.6837925836       29.7312936417  TIP3      829             0.0000000000
     15956       976  TIP3      OH2            -7.4044056158       -6.1648630679       30.5507896492  TIP3      830             0.0000000000
     15957       976  TIP3      H1             -7.3162858446       -5.2047785953       30.3466456495  TIP3      830             0.0000000000
     15958       976  TIP3      H2             -6.9937168971       -6.5204182708       29.7390280975  TIP3      830             0.0000000000
     15959       977  TIP3      OH2            -6.3117960115        1.7873295396       33.2177647518  TIP3      831             0.0000000000
     15960       977  TIP3      H1             -6.5677335411        2.3804707494       32.5002053111  TIP3      831             0.0000000000
     15961       977  TIP3      H2             -7.1473174275        1.7553081863       33.7518974561  TIP3      831             0.0000000000
     15962       978  TIP3      OH2           -10.3816510057        1.0824819140       23.9403781531  TIP3      832             0.0000000000
     15963       978  TIP3      H1            -10.6212467154        1.6433233561       23.1744576476  TIP3      832             0.0000000000
     15964       978  TIP3      H2            -10.2754737072        1.7655369503       24.6352303283  TIP3      832             0.0000000000
     15965       979  TIP3      OH2             3.4276887697        2.5507880825       31.4007468693  TIP3      833             0.0000000000
     15966       979  TIP3      H1              2.4840764039        2.8248372211       31.4981843295  TIP3      833             0.0000000000
     15967       979  TIP3      H2              3.7254397863        3.2520107553       30.7932177543  TIP3      833             0.0000000000
     15968       980  TIP3      OH2             3.5882414185       -8.8858674455       32.0749383623  TIP3      834             0.0000000000
     15969       980  TIP3      H1              2.7494765070       -8.5135340600       31.7122187131  TIP3      834             0.0000000000
     15970       980  TIP3      H2              4.0996515625       -9.0399953796       31.2542812241  TIP3      834             0.0000000000
     15971       981  TIP3      OH2            -3.3844949306      -10.6168325304       29.6749310479  TIP3      835             0.0000000000
     15972       981  TIP3      H1             -4.3411001248      -10.8187649982       29.7530853830  TIP3      835             0.0000000000
     15973       981  TIP3      H2             -3.3925713750       -9.6693085959       29.9424169395  TIP3      835             0.0000000000
     15974       982  TIP3      OH2             2.0051906116        4.7367808990       27.4020531811  TIP3      836             0.0000000000
     15975       982  TIP3      H1              2.1539142095        3.9533136930       26.8412848444  TIP3      836             0.0000000000
     15976       982  TIP3      H2              2.8882112685        5.1764079742       27.3025872651  TIP3      836             0.0000000000
     15977       983  TIP3      OH2             2.8733892421        2.5769405935       26.0343880951  TIP3      837             0.0000000000
     15978       983  TIP3      H1              2.9743937510        1.7695324361       25.4912416282  TIP3      837             0.0000000000
     15979       983  TIP3      H2              2.7110591869        2.1532091088       26.8937779218  TIP3      837             0.0000000000
     15980       984  TIP3      OH2             4.7169151700        1.0910480724       34.6563492896  TIP3      838             0.0000000000
     15981       984  TIP3      H1              5.0197336483        0.3492290259       34.0971410049  TIP3      838             0.0000000000
     15982       984  TIP3      H2              4.8154250253        1.8248067533       34.0094263987  TIP3      838             0.0000000000
     15983       985  TIP3      OH2            -1.2020690581       -1.8268942772       24.0551388417  TIP3      839             0.0000000000
     15984       985  TIP3      H1             -1.7661886775       -1.2864036823       23.4861243091  TIP3      839             0.0000000000
     15985       985  TIP3      H2             -0.3449256785       -1.8448240600       23.5951908936  TIP3      839             0.0000000000
     15986       986  TIP3      OH2             0.0638483652       -3.5126220914       21.1227004394  TIP3      840             0.0000000000
     15987       986  TIP3      H1              0.5452804914       -3.0734355147       21.8472690534  TIP3      840             0.0000000000
     15988       986  TIP3      H2             -0.5402409583       -4.1168229875       21.5660977669  TIP3      840             0.0000000000
     15989       987  TIP3      OH2             6.7727647096       -2.4165812605       32.4171271058  TIP3      841             0.0000000000
     15990       987  TIP3      H1              6.0814657291       -1.7200956945       32.4567061977  TIP3      841             0.0000000000
     15991       987  TIP3      H2              7.3893790624       -1.9806665989       31.7810861147  TIP3      841             0.0000000000
     15992       988  TIP3      OH2             3.0707608895       -2.0411193382       25.4097241240  TIP3      842             0.0000000000
     15993       988  TIP3      H1              2.3448197922       -1.6198822569       25.9344474306  TIP3      842             0.0000000000
     15994       988  TIP3      H2              3.5611090607       -2.4944134107       26.1265060278  TIP3      842             0.0000000000
     15995       989  TIP3      OH2             3.1678210357       -3.2982131679       34.5088194141  TIP3      843             0.0000000000
     15996       989  TIP3      H1              2.9675534732       -2.3451653974       34.4941969147  TIP3      843             0.0000000000
     15997       989  TIP3      H2              2.2732237160       -3.6332506090       34.2556837096  TIP3      843             0.0000000000
     15998       990  TIP3      OH2            -6.2797263418       -0.8852264821       27.0956299986  TIP3      844             0.0000000000
     15999       990  TIP3      H1             -6.5368134833       -1.4064110939       26.3160866929  TIP3      844             0.0000000000
     16000       990  TIP3      H2             -5.6908870984       -1.5350974684       27.5552148764  TIP3      844             0.0000000000
     16001       991  TIP3      OH2            -4.6126501867        1.9610005475       29.8097264560  TIP3      845             0.0000000000
     16002       991  TIP3      H1             -4.4158688593        1.6769419439       28.8984465602  TIP3      845             0.0000000000
     16003       991  TIP3      H2             -3.8707220437        1.5722138668       30.3377909936  TIP3      845             0.0000000000
     16004       992  TIP3      OH2            -3.7413006485       -2.0460377688       30.3872752707  TIP3      846             0.0000000000
     16005       992  TIP3      H1             -4.5115931678       -2.4751661952       29.9710775146  TIP3      846             0.0000000000
     16006       992  TIP3      H2             -4.1765045121       -1.5530891065       31.1030542857  TIP3      846             0.0000000000
     16007       993  TIP3      OH2             0.9014748780        3.4612901918       31.6079639633  TIP3      847             0.0000000000
     16008       993  TIP3      H1              0.8081650212        4.2179472193       32.2167571767  TIP3      847             0.0000000000
     16009       993  TIP3      H2              0.3733948669        2.7694779892       32.0690438192  TIP3      847             0.0000000000
     16010       994  TIP3      OH2            -4.4893271623        2.1712832856       35.2271295132  TIP3      848             0.0000000000
     16011       994  TIP3      H1             -5.1096743492        2.7182921736       35.7636233898  TIP3      848             0.0000000000
     16012       994  TIP3      H2             -5.0626054837        1.9574292888       34.4537420507  TIP3      848             0.0000000000
     16013       995  TIP3      OH2             1.4757329444       -2.4270593972       23.2795975822  TIP3      849             0.0000000000
     16014       995  TIP3      H1              2.0530488789       -2.3157394624       24.0670077233  TIP3      849             0.0000000000
     16015       995  TIP3      H2              1.9102206348       -1.7942182018       22.6534112474  TIP3      849             0.0000000000
     16016       996  TIP3      OH2            -7.0180505911       -1.7264423317       34.6333048984  TIP3      850             0.0000000000
     16017       996  TIP3      H1             -7.3561953528       -1.0405358906       35.2267414589  TIP3      850             0.0000000000
     16018       996  TIP3      H2             -7.6726939404       -1.7455349972       33.9079171548  TIP3      850             0.0000000000
     16019       997  TIP3      OH2            -0.8735063237        4.6554294841       25.9680218262  TIP3      851             0.0000000000
     16020       997  TIP3      H1             -1.0753218195        4.8082793248       26.8932500302  TIP3      851             0.0000000000
     16021       997  TIP3      H2             -1.1281402340        5.5127936268       25.5805044050  TIP3      851             0.0000000000
     16022       998  TIP3      OH2            -6.0470407842        3.8321822699       36.6860794894  TIP3      852             0.0000000000
     16023       998  TIP3      H1             -6.1068735355        4.5366120755       35.9956785044  TIP3      852             0.0000000000
     16024       998  TIP3      H2             -6.9828945048        3.5227836176       36.7233704663  TIP3      852             0.0000000000
     16025       999  TIP3      OH2             5.2610155662      -10.5923412608       23.3061602710  TIP3      853             0.0000000000
     16026       999  TIP3      H1              4.2758793975      -10.5870469252       23.3642381099  TIP3      853             0.0000000000
     16027       999  TIP3      H2              5.4014075559       -9.8029452660       22.7522259473  TIP3      853             0.0000000000
     16028      1000  TIP3      OH2            -7.2134787522       -2.0339652273       24.2933660106  TIP3      854             0.0000000000
     16029      1000  TIP3      H1             -7.3492486572       -1.1594787588       23.8915190994  TIP3      854             0.0000000000
     16030      1000  TIP3      H2             -7.5820210152       -2.6322309466       23.6408060265  TIP3      854             0.0000000000
     16031      1001  TIP3      OH2             6.1135091016        3.7488648414       21.4423017923  TIP3      855             0.0000000000
     16032      1001  TIP3      H1              6.4186950221        4.6784694494       21.5463513748  TIP3      855             0.0000000000
     16033      1001  TIP3      H2              6.9470288112        3.2715412245       21.2609682945  TIP3      855             0.0000000000
     16034      1002  TIP3      OH2           -10.4905006985        0.3022665768       33.7241362995  TIP3      856             0.0000000000
     16035      1002  TIP3      H1            -10.7324384768        0.1272610883       32.7993684430  TIP3      856             0.0000000000
     16036      1002  TIP3      H2            -10.3493836355       -0.6272801728       34.0181311982  TIP3      856             0.0000000000
     16037      1003  TIP3      OH2           -11.3124202261        2.9171338366       30.1010305668  TIP3      857             0.0000000000
     16038      1003  TIP3      H1            -10.4919920310        2.6678202670       30.5429878604  TIP3      857             0.0000000000
     16039      1003  TIP3      H2            -11.5659337867        3.7387069514       30.5546795967  TIP3      857             0.0000000000
     16040      1004  TIP3      OH2             7.1425520687        3.7534688923       36.3257239256  TIP3      858             0.0000000000
     16041      1004  TIP3      H1              7.0197509291        2.7969165975       36.4790149923  TIP3      858             0.0000000000
     16042      1004  TIP3      H2              6.2976064533        4.0904786323       36.7090488351  TIP3      858             0.0000000000
     16043      1005  TIP3      OH2            -1.7934345093        3.0888838532       34.9845726235  TIP3      859             0.0000000000
     16044      1005  TIP3      H1             -1.7376871077        3.7318725068       35.7010844906  TIP3      859             0.0000000000
     16045      1005  TIP3      H2             -2.7339523475        2.8134451803       34.9977912677  TIP3      859             0.0000000000
     16046      1006  TIP3      OH2            -1.1795367706        7.0266231716       24.5684154177  TIP3      860             0.0000000000
     16047      1006  TIP3      H1             -1.0839918129        7.3757339533       23.6397373825  TIP3      860             0.0000000000
     16048      1006  TIP3      H2             -1.2946769371        7.8691459899       25.0465996112  TIP3      860             0.0000000000
     16049      1007  TIP3      OH2            -7.5986094980        5.7233661767       26.6363288881  TIP3      861             0.0000000000
     16050      1007  TIP3      H1             -7.2727623997        5.5552104562       27.5524026562  TIP3      861             0.0000000000
     16051      1007  TIP3      H2             -8.5223892990        5.4380870309       26.6679997931  TIP3      861             0.0000000000
     16052      1008  TIP3      OH2             2.0307280556        7.0884216524       21.9118174263  TIP3      862             0.0000000000
     16053      1008  TIP3      H1              2.3731287772        6.4118136617       21.2928079430  TIP3      862             0.0000000000
     16054      1008  TIP3      H2              2.1070301841        6.5793352452       22.7350920640  TIP3      862             0.0000000000
     16055      1009  TIP3      OH2             1.5643694253        6.1514233501       24.6242557024  TIP3      863             0.0000000000
     16056      1009  TIP3      H1              0.6451687856        6.4432167371       24.7560703237  TIP3      863             0.0000000000
     16057      1009  TIP3      H2              1.5745609685        5.3266468539       25.1485872424  TIP3      863             0.0000000000
     16058      1010  TIP3      OH2             4.4033196915       -4.9273693297       36.4738737787  TIP3      864             0.0000000000
     16059      1010  TIP3      H1              3.9764544903       -4.3248099764       35.8216929518  TIP3      864             0.0000000000
     16060      1010  TIP3      H2              3.9298739844       -5.7448412510       36.2148792135  TIP3      864             0.0000000000
     16061      1011  TIP3      OH2            -8.4325936906        1.5641637240       34.7359351371  TIP3      865             0.0000000000
     16062      1011  TIP3      H1             -8.2657796184        0.9568992919       35.4949721097  TIP3      865             0.0000000000
     16063      1011  TIP3      H2             -9.2400757300        1.1690521613       34.3396656217  TIP3      865             0.0000000000
     16064      1012  TIP3      OH2            -6.0085503767      -10.0618056403       29.9932657330  TIP3      866             0.0000000000
     16065      1012  TIP3      H1             -6.8073633031       -9.8633660161       30.5148102824  TIP3      866             0.0000000000
     16066      1012  TIP3      H2             -5.3914071692       -9.3423109871       30.2610203800  TIP3      866             0.0000000000
     16067      1013  TIP3      OH2            -1.3673751605      -10.4839358047       33.7141232510  TIP3      867             0.0000000000
     16068      1013  TIP3      H1             -0.9228943081      -10.7205200228       34.5511931313  TIP3      867             0.0000000000
     16069      1013  TIP3      H2             -2.3361186251      -10.4614710693       33.9205413264  TIP3      867             0.0000000000
     16070      1014  TIP3      OH2             2.4985123464       -6.2424555215       35.2921723521  TIP3      868             0.0000000000
     16071      1014  TIP3      H1              1.7666079328       -6.7236642786       35.7343151978  TIP3      868             0.0000000000
     16072      1014  TIP3      H2              1.9846234682       -5.4288143098       35.0851995444  TIP3      868             0.0000000000
     16073      1015  TIP3      OH2             2.5377151311       -1.0617513574       21.2786447910  TIP3      869             0.0000000000
     16074      1015  TIP3      H1              2.4869538109       -1.3672872789       20.3639764840  TIP3      869             0.0000000000
     16075      1015  TIP3      H2              3.1980098931       -0.3562519711       21.2052478969  TIP3      869             0.0000000000
     16076      1016  TIP3      OH2            -1.5828788261       -7.1567789758       21.3315127692  TIP3      870             0.0000000000
     16077      1016  TIP3      H1             -1.9478739125       -7.7432201041       22.0261537344  TIP3      870             0.0000000000
     16078      1016  TIP3      H2             -2.0688975220       -7.4318805921       20.5493345927  TIP3      870             0.0000000000
     16079      1017  TIP3      OH2            -5.5564405903       -4.5035198921       32.4776583816  TIP3      871             0.0000000000
     16080      1017  TIP3      H1             -6.4595211302       -4.5769894426       32.1286800805  TIP3      871             0.0000000000
     16081      1017  TIP3      H2             -5.0583964922       -4.4888081688       31.6529700661  TIP3      871             0.0000000000
     16082      1018  TIP3      OH2            -5.5277160901       -5.0848512203       26.8699434735  TIP3      872             0.0000000000
     16083      1018  TIP3      H1             -6.5106198151       -5.0820138942       26.8525527904  TIP3      872             0.0000000000
     16084      1018  TIP3      H2             -5.3289797594       -5.3500599588       25.9571169366  TIP3      872             0.0000000000
     16085      1019  TIP3      OH2            -0.3053930514       -3.9647183213       25.6892445355  TIP3      873             0.0000000000
     16086      1019  TIP3      H1             -0.7012482617       -3.1894594539       25.2416211249  TIP3      873             0.0000000000
     16087      1019  TIP3      H2              0.2621524762       -4.2755051532       24.9751912590  TIP3      873             0.0000000000
     16088      1020  TIP3      OH2            -1.5052869790       -3.8525035316       37.4137252939  TIP3      874             0.0000000000
     16089      1020  TIP3      H1             -1.9103740792       -4.6873183921       37.0955829036  TIP3      874             0.0000000000
     16090      1020  TIP3      H2             -0.5941604193       -3.9616914408       37.0833489711  TIP3      874             0.0000000000
     16091      1021  TIP3      OH2             0.3963791592       -4.8986374202       28.3979396206  TIP3      875             0.0000000000
     16092      1021  TIP3      H1              0.6210422142       -3.9547132513       28.3612680588  TIP3      875             0.0000000000
     16093      1021  TIP3      H2              0.2636962701       -5.0465315996       27.4544168707  TIP3      875             0.0000000000
     16094      1022  TIP3      OH2            -8.3289760616       -4.7001169076       33.2037543484  TIP3      876             0.0000000000
     16095      1022  TIP3      H1             -7.5199706525       -4.5415086159       33.6993145844  TIP3      876             0.0000000000
     16096      1022  TIP3      H2             -8.5276723752       -5.6330129569       33.4331675743  TIP3      876             0.0000000000
     16097      1023  TIP3      OH2            -5.3968303315       -7.8333156065       20.3452467594  TIP3      877             0.0000000000
     16098      1023  TIP3      H1             -5.3360458314       -7.8595246270       21.3208543159  TIP3      877             0.0000000000
     16099      1023  TIP3      H2             -5.6490476406       -6.9249312394       20.1434912580  TIP3      877             0.0000000000
     16100      1024  TIP3      OH2           -11.0291999762       -7.5165670917       27.8900152792  TIP3      878             0.0000000000
     16101      1024  TIP3      H1            -10.4553776231       -7.5671843034       28.6968242140  TIP3      878             0.0000000000
     16102      1024  TIP3      H2            -10.9522309095       -6.5749523794       27.6687938395  TIP3      878             0.0000000000
     16103      1025  TIP3      OH2           -10.7131018557       -6.6438216130       22.8194062767  TIP3      879             0.0000000000
     16104      1025  TIP3      H1            -10.0157444245       -6.1984560736       22.3209547972  TIP3      879             0.0000000000
     16105      1025  TIP3      H2            -11.2256233333       -5.8712615187       23.1267399246  TIP3      879             0.0000000000
     16106      1026  TIP3      OH2            -0.0699876009       -2.1353207285       32.4616207645  TIP3      880             0.0000000000
     16107      1026  TIP3      H1              0.4961668633       -2.8008855070       32.0247592790  TIP3      880             0.0000000000
     16108      1026  TIP3      H2             -0.2660693522       -2.6361191258       33.2882643796  TIP3      880             0.0000000000
     16109      1027  TIP3      OH2            -3.0615736898       -7.3840751124       27.7806943199  TIP3      881             0.0000000000
     16110      1027  TIP3      H1             -4.0039596915       -7.6142478747       27.7916355258  TIP3      881             0.0000000000
     16111      1027  TIP3      H2             -3.0505686789       -6.8473982193       28.6005455500  TIP3      881             0.0000000000
     16112      1028  TIP3      OH2            -8.1506492534       -5.4175465293       26.6792058367  TIP3      882             0.0000000000
     16113      1028  TIP3      H1             -8.8266674884       -4.9713945283       26.1308628531  TIP3      882             0.0000000000
     16114      1028  TIP3      H2             -8.1201529332       -6.3082234938       26.2740617331  TIP3      882             0.0000000000
     16115      1029  TIP3      OH2            -4.9722320271       -5.4920292867       24.0691344314  TIP3      883             0.0000000000
     16116      1029  TIP3      H1             -4.0809353337       -5.1213591495       24.0358819748  TIP3      883             0.0000000000
     16117      1029  TIP3      H2             -5.5185708896       -4.7997167789       23.6524947799  TIP3      883             0.0000000000
     16118      1030  TIP3      OH2             1.4167075287       -7.7355542090       30.8549001774  TIP3      884             0.0000000000
     16119      1030  TIP3      H1              0.8226072468       -7.8124815181       31.6310530312  TIP3      884             0.0000000000
     16120      1030  TIP3      H2              0.7935077471       -7.9241563431       30.1208572219  TIP3      884             0.0000000000
     16121      1031  TIP3      OH2            -6.1835317819       -4.0942989078       21.5604733084  TIP3      885             0.0000000000
     16122      1031  TIP3      H1             -6.5209007491       -3.4499762037       20.9034571604  TIP3      885             0.0000000000
     16123      1031  TIP3      H2             -5.2274247579       -3.9524050309       21.4350954598  TIP3      885             0.0000000000
     16124      1032  TIP3      OH2             4.3582129205        7.7207124023       37.4879571793  TIP3      886             0.0000000000
     16125      1032  TIP3      H1              4.6362976393        8.1029080053       36.6316717873  TIP3      886             0.0000000000
     16126      1032  TIP3      H2              5.0511381046        8.1174895925       38.0518647896  TIP3      886             0.0000000000
     16127      1033  TIP3      OH2            -7.8870257616       -0.0550312145       36.8354239845  TIP3      887             0.0000000000
     16128      1033  TIP3      H1             -7.1731182901        0.1209192157       37.4917817240  TIP3      887             0.0000000000
     16129      1033  TIP3      H2             -8.6674370756       -0.1558282668       37.4163235970  TIP3      887             0.0000000000
     16130      1034  TIP3      OH2            -2.3349332265       -4.7308477832       29.1796404164  TIP3      888             0.0000000000
     16131      1034  TIP3      H1             -1.3874504102       -4.9041840471       29.0061802208  TIP3      888             0.0000000000
     16132      1034  TIP3      H2             -2.3109428216       -4.5587659432       30.1508192538  TIP3      888             0.0000000000
     16133      1035  TIP3      OH2            -7.3742737294       -7.9271178036       26.1050475678  TIP3      889             0.0000000000
     16134      1035  TIP3      H1             -7.7691447216       -8.7664828892       26.4616373225  TIP3      889             0.0000000000
     16135      1035  TIP3      H2             -6.9467056703       -8.2642522589       25.2997106743  TIP3      889             0.0000000000
     16136      1036  TIP3      OH2            -2.1838087811       -5.0460789354       31.8421767144  TIP3      890             0.0000000000
     16137      1036  TIP3      H1             -2.8337295974       -5.7385871792       31.5948157237  TIP3      890             0.0000000000
     16138      1036  TIP3      H2             -1.9309100048       -5.2975759341       32.7492642461  TIP3      890             0.0000000000
     16139      1037  TIP3      OH2            -3.1613367473        0.8907591195       23.6153357897  TIP3      891             0.0000000000
     16140      1037  TIP3      H1             -3.6733180422        0.0699657173       23.4167631599  TIP3      891             0.0000000000
     16141      1037  TIP3      H2             -3.1212739642        0.8146083547       24.5903145226  TIP3      891             0.0000000000
     16142      1038  TIP3      OH2             4.8599303788       -0.4635360480       32.4952323145  TIP3      892             0.0000000000
     16143      1038  TIP3      H1              5.1494633372        0.0848911762       31.7325395754  TIP3      892             0.0000000000
     16144      1038  TIP3      H2              3.8939784369       -0.4271985408       32.3865680839  TIP3      892             0.0000000000
     16145      1039  TIP3      OH2             0.6348689137       -7.1605557542       22.8507921714  TIP3      893             0.0000000000
     16146      1039  TIP3      H1             -0.1209459166       -7.0208083671       22.2324257963  TIP3      893             0.0000000000
     16147      1039  TIP3      H2              1.2549393587       -6.4437187023       22.5963944959  TIP3      893             0.0000000000
     16148      1040  TIP3      OH2            -1.1642252141        0.4839664983       35.1685766151  TIP3      894             0.0000000000
     16149      1040  TIP3      H1             -1.7903692685        0.1611204106       35.8364194003  TIP3      894             0.0000000000
     16150      1040  TIP3      H2             -1.3410628474        1.4429243957       35.2388178110  TIP3      894             0.0000000000
     16151      1041  TIP3      OH2             2.4415438224       -5.2135761918       23.1223388440  TIP3      895             0.0000000000
     16152      1041  TIP3      H1              3.0035601880       -5.3188052870       23.9044522503  TIP3      895             0.0000000000
     16153      1041  TIP3      H2              2.2657167532       -4.2595427890       23.1081971290  TIP3      895             0.0000000000
     16154      1042  TIP3      OH2            -8.2431914954       -0.3667729202       29.0580005664  TIP3      896             0.0000000000
     16155      1042  TIP3      H1             -7.8372694646       -0.3308489811       28.1656933097  TIP3      896             0.0000000000
     16156      1042  TIP3      H2             -7.8411125054       -1.2015103070       29.3958260336  TIP3      896             0.0000000000
     16157      1043  TIP3      OH2            -0.8316150146        1.9206776265       22.9243009327  TIP3      897             0.0000000000
     16158      1043  TIP3      H1             -1.0111291942        2.8582287487       23.1453526772  TIP3      897             0.0000000000
     16159      1043  TIP3      H2             -1.7248337224        1.5232393626       23.0599324922  TIP3      897             0.0000000000
     16160      1044  TIP3      OH2           -10.8248368559       -2.1022829608       34.8705708255  TIP3      898             0.0000000000
     16161      1044  TIP3      H1            -10.7513898930       -2.7954663324       35.5575980819  TIP3      898             0.0000000000
     16162      1044  TIP3      H2            -11.1270464274       -2.5649653962       34.0707244466  TIP3      898             0.0000000000
     16163      1045  TIP3      OH2            -3.6847549603       -2.3560190401       36.6517828497  TIP3      899             0.0000000000
     16164      1045  TIP3      H1             -4.0480254833       -2.9140093240       35.9347907548  TIP3      899             0.0000000000
     16165      1045  TIP3      H2             -2.8308121900       -2.7954409862       36.8166474856  TIP3      899             0.0000000000
     16166      1046  TIP3      OH2             1.4546292747        2.9513360039       35.2610325644  TIP3      900             0.0000000000
     16167      1046  TIP3      H1              0.7411176816        3.0341697510       34.6193803874  TIP3      900             0.0000000000
     16168      1046  TIP3      H2              1.0578585182        3.3972359740       36.0384375601  TIP3      900             0.0000000000
     16169      1047  TIP3      OH2             7.0682205344        0.9889251691       36.0697494598  TIP3      901             0.0000000000
     16170      1047  TIP3      H1              6.1073147027        1.0805246141       35.8567621298  TIP3      901             0.0000000000
     16171      1047  TIP3      H2              7.4432877666        0.9256516594       35.1599347233  TIP3      901             0.0000000000
     16172      1048  TIP3      OH2             4.6418902067        3.8477773534       23.7339471319  TIP3      902             0.0000000000
     16173      1048  TIP3      H1              4.1462789952        3.1020081997       24.0961441805  TIP3      902             0.0000000000
     16174      1048  TIP3      H2              4.9585853818        3.5043323418       22.8791704804  TIP3      902             0.0000000000
     16175      1049  TIP3      OH2             2.3624231514       -1.3881631476       30.4789760894  TIP3      903             0.0000000000
     16176      1049  TIP3      H1              1.4208997736       -1.5546348826       30.3104000947  TIP3      903             0.0000000000
     16177      1049  TIP3      H2              2.7331223450       -2.2387516068       30.1764035655  TIP3      903             0.0000000000
     16178      1050  TIP3      OH2            -5.3819930522        3.1845323241       26.6248060738  TIP3      904             0.0000000000
     16179      1050  TIP3      H1             -5.0908250539        4.0879557225       26.3660179448  TIP3      904             0.0000000000
     16180      1050  TIP3      H2             -6.2253894450        3.1252408761       26.1685998476  TIP3      904             0.0000000000
     16181      1051  TIP3      OH2            -4.0517083625        0.7272497196       26.9251138681  TIP3      905             0.0000000000
     16182      1051  TIP3      H1             -4.5734741873        1.4869225979       26.5869831765  TIP3      905             0.0000000000
     16183      1051  TIP3      H2             -4.7303919707        0.0346855986       27.0124726226  TIP3      905             0.0000000000
     16184      1052  TIP3      OH2            -3.4057756910        4.9801649567       33.2701705326  TIP3      906             0.0000000000
     16185      1052  TIP3      H1             -2.7112526701        5.5982678534       32.9805614204  TIP3      906             0.0000000000
     16186      1052  TIP3      H2             -2.9069971277        4.5057965737       33.9630126893  TIP3      906             0.0000000000
     16187      1053  TIP3      OH2            -4.9270352164        5.7946204840       26.1088855773  TIP3      907             0.0000000000
     16188      1053  TIP3      H1             -5.8998736392        5.8743666190       26.2221426550  TIP3      907             0.0000000000
     16189      1053  TIP3      H2             -4.6442915695        6.7315664240       26.2235461398  TIP3      907             0.0000000000
     16190      1054  TIP3      OH2            -0.1457378074        1.0116176389       32.4749642821  TIP3      908             0.0000000000
     16191      1054  TIP3      H1             -0.4789437933        0.6744758659       33.3395346112  TIP3      908             0.0000000000
     16192      1054  TIP3      H2              0.3366075908        0.2230596376       32.1616500221  TIP3      908             0.0000000000
     16193      1055  TIP3      OH2             2.4372652214        2.0052681494       21.7538602071  TIP3      909             0.0000000000
     16194      1055  TIP3      H1              2.3360206062        1.6778276049       22.6657686456  TIP3      909             0.0000000000
     16195      1055  TIP3      H2              1.5409375779        1.8873431412       21.4282570762  TIP3      909             0.0000000000
     16196      1056  TIP3      OH2             3.1593618906        5.3964677614       34.8896786025  TIP3      910             0.0000000000
     16197      1056  TIP3      H1              2.3357631552        4.8987283736       34.7055034670  TIP3      910             0.0000000000
     16198      1056  TIP3      H2              3.1714897803        5.9857741140       34.1064533994  TIP3      910             0.0000000000
     16199      1057  TIP3      OH2             6.9161677724        6.3549406447       21.8324787520  TIP3      911             0.0000000000
     16200      1057  TIP3      H1              7.5904372831        6.9780640630       21.5114532176  TIP3      911             0.0000000000
     16201      1057  TIP3      H2              6.3220290760        6.9705982895       22.3199910644  TIP3      911             0.0000000000
     16202      1058  TIP3      OH2            -8.8277828176       -7.2564505697       34.1468291771  TIP3      912             0.0000000000
     16203      1058  TIP3      H1             -9.5246466782       -7.0246277048       34.7983056014  TIP3      912             0.0000000000
     16204      1058  TIP3      H2             -8.4408896395       -8.0560379871       34.5586314372  TIP3      912             0.0000000000
     16205      1059  TIP3      OH2             3.2804283141        0.4934980585       24.1888227689  TIP3      913             0.0000000000
     16206      1059  TIP3      H1              3.2967449307       -0.4334638845       24.4986840162  TIP3      913             0.0000000000
     16207      1059  TIP3      H2              4.2252112682        0.6429162309       23.9759243915  TIP3      913             0.0000000000
     16208      1060  TIP3      OH2            -9.3357629721        4.2981006422       32.6717681826  TIP3      914             0.0000000000
     16209      1060  TIP3      H1             -8.7232512052        3.5698560893       32.8425347094  TIP3      914             0.0000000000
     16210      1060  TIP3      H2             -9.1418322366        4.9154202775       33.3968985173  TIP3      914             0.0000000000
     16211      1061  TIP3      OH2            -4.6019736168        2.9336679862       22.2400105897  TIP3      915             0.0000000000
     16212      1061  TIP3      H1             -4.2156138934        2.2931400523       22.8622364073  TIP3      915             0.0000000000
     16213      1061  TIP3      H2             -4.5462192472        3.7848866250       22.7379889541  TIP3      915             0.0000000000
     16214      1062  TIP3      OH2             0.2387972116       -8.0355946504       33.4793397019  TIP3      916             0.0000000000
     16215      1062  TIP3      H1              0.0868870080       -7.3425438786       34.1412385711  TIP3      916             0.0000000000
     16216      1062  TIP3      H2             -0.4453854376       -8.7087429436       33.6730557829  TIP3      916             0.0000000000
     16217      1063  TIP3      OH2             0.7622791850       -8.7881152664       24.9819330087  TIP3      917             0.0000000000
     16218      1063  TIP3      H1              0.7559934399       -8.1854125433       24.1944661251  TIP3      917             0.0000000000
     16219      1063  TIP3      H2              1.3160105754       -8.2717165535       25.6102402730  TIP3      917             0.0000000000
     16220      1064  TIP3      OH2            -1.8953228332        4.5638045176       22.9876736213  TIP3      918             0.0000000000
     16221      1064  TIP3      H1             -2.8110644438        4.7720301357       23.3021955993  TIP3      918             0.0000000000
     16222      1064  TIP3      H2             -1.4198167709        5.2890745315       23.4222223182  TIP3      918             0.0000000000
     16223      1065  TIP3      OH2            -1.8410204171       -6.2999684581       25.5643290415  TIP3      919             0.0000000000
     16224      1065  TIP3      H1             -1.5283568495       -5.3790803807       25.6709480536  TIP3      919             0.0000000000
     16225      1065  TIP3      H2             -2.2166462174       -6.4965052253       26.4503591081  TIP3      919             0.0000000000
     16226      1066  TIP3      OH2            -2.4001919377       -5.4339484701       35.1511038704  TIP3      920             0.0000000000
     16227      1066  TIP3      H1             -1.9425298510       -4.5971633009       34.9285138103  TIP3      920             0.0000000000
     16228      1066  TIP3      H2             -1.7015771075       -6.0832345517       34.9980115313  TIP3      920             0.0000000000
     16229      1067  TIP3      OH2            -1.6761134325       -9.6031619142       25.9769689218  TIP3      921             0.0000000000
     16230      1067  TIP3      H1             -2.1240567316       -8.8996752063       26.4887799669  TIP3      921             0.0000000000
     16231      1067  TIP3      H2             -0.8182929460       -9.1678839818       25.7563526514  TIP3      921             0.0000000000
     16232      1068  TIP3      OH2            -4.4120095172        5.1892099687       23.5992359485  TIP3      922             0.0000000000
     16233      1068  TIP3      H1             -4.7155201254        5.9870293093       23.1210702914  TIP3      922             0.0000000000
     16234      1068  TIP3      H2             -4.7206807994        5.4590909634       24.4892348304  TIP3      922             0.0000000000
     16235      1069  TIP3      OH2            -5.4528667375       -7.9893363596       23.1471628867  TIP3      923             0.0000000000
     16236      1069  TIP3      H1             -5.4407612903       -7.0549005695       23.4534638641  TIP3      923             0.0000000000
     16237      1069  TIP3      H2             -4.5048017379       -8.1965853338       23.2995263032  TIP3      923             0.0000000000
     16238      1070  TIP3      OH2             4.7337726197       -7.6320061816       34.8895967025  TIP3      924             0.0000000000
     16239      1070  TIP3      H1              3.8279316294       -7.2501459679       34.9813431584  TIP3      924             0.0000000000
     16240      1070  TIP3      H2              4.8365825077       -7.5991260184       33.9218917874  TIP3      924             0.0000000000
     16241      1071  TIP3      OH2             2.9483468655       -3.8169914186       28.9622313585  TIP3      925             0.0000000000
     16242      1071  TIP3      H1              2.3240575613       -4.3975931911       29.4316871488  TIP3      925             0.0000000000
     16243      1071  TIP3      H2              3.7674746464       -4.0544543252       29.4524450853  TIP3      925             0.0000000000
     16244      1072  TIP3      OH2            -9.5846534618       -4.6335961709       20.9047284831  TIP3      926             0.0000000000
     16245      1072  TIP3      H1             -8.6589759504       -4.3392258144       20.9614372392  TIP3      926             0.0000000000
     16246      1072  TIP3      H2             -9.5254728491       -5.5201380540       20.5196348050  TIP3      926             0.0000000000
     16247      1073  TIP3      OH2             3.9432074061        5.4902103340       30.6819886418  TIP3      927             0.0000000000
     16248      1073  TIP3      H1              3.7375342539        6.1457447299       29.9902536297  TIP3      927             0.0000000000
     16249      1073  TIP3      H2              4.9209112780        5.5836450704       30.6775504174  TIP3      927             0.0000000000
     16250      1074  TIP3      OH2            -8.8055555971      -10.1336141082       30.1301330660  TIP3      928             0.0000000000
     16251      1074  TIP3      H1             -8.4314167247      -10.1122235257       29.2324022248  TIP3      928             0.0000000000
     16252      1074  TIP3      H2             -9.0136332437      -11.0838620094       30.2464409133  TIP3      928             0.0000000000
     16253      1075  TIP3      OH2            -9.9613994765        3.4693159773       25.1138458719  TIP3      929             0.0000000000
     16254      1075  TIP3      H1            -10.3418084204        3.8961737881       25.8899755942  TIP3      929             0.0000000000
     16255      1075  TIP3      H2             -9.8272017216        4.2331738083       24.5038923297  TIP3      929             0.0000000000
     16256      1076  TIP3      OH2           -10.4031015413        6.6853245758       37.1974953580  TIP3      930             0.0000000000
     16257      1076  TIP3      H1             -9.7394617587        6.4062816723       37.8754486806  TIP3      930             0.0000000000
     16258      1076  TIP3      H2            -10.7771565298        5.8117625724       36.9998490017  TIP3      930             0.0000000000
     16259      1077  TIP3      OH2            -5.3156035356        5.0064697775       38.9376760007  TIP3      931             0.0000000000
     16260      1077  TIP3      H1             -4.3844979167        4.7661313546       38.7818125993  TIP3      931             0.0000000000
     16261      1077  TIP3      H2             -5.7184129007        4.5547100275       38.1616674990  TIP3      931             0.0000000000
     16262      1078  TIP3      OH2            -1.2872008958        5.4099406071       20.1426470208  TIP3      932             0.0000000000
     16263      1078  TIP3      H1             -1.9305508750        5.3587909053       20.8654349515  TIP3      932             0.0000000000
     16264      1078  TIP3      H2             -1.0446710589        4.4835846784       20.0089862104  TIP3      932             0.0000000000
     16265      1079  TIP3      OH2             0.6452708212        4.0671861913       37.5827145308  TIP3      933             0.0000000000
     16266      1079  TIP3      H1              0.4455496300        3.1509456298       37.9032732842  TIP3      933             0.0000000000
     16267      1079  TIP3      H2              1.5603356484        4.1344388904       37.9408827227  TIP3      933             0.0000000000
     16268      1080  TIP3      OH2             3.4086083503        4.8656739672       20.9491543106  TIP3      934             0.0000000000
     16269      1080  TIP3      H1              3.0470224848        3.9668156850       20.9945962140  TIP3      934             0.0000000000
     16270      1080  TIP3      H2              4.3519101979        4.6624054083       21.0308122026  TIP3      934             0.0000000000
     16271      1081  TIP3      OH2           -10.4676162607       -0.0175085902       37.9594129049  TIP3      935             0.0000000000
     16272      1081  TIP3      H1            -10.8622869926       -0.9008640372       37.9235781087  TIP3      935             0.0000000000
     16273      1081  TIP3      H2            -10.9304352082        0.4238711194       37.2135552913  TIP3      935             0.0000000000
     16274      1082  TIP3      OH2            -3.4191965516        0.2501675586       36.9383902229  TIP3      936             0.0000000000
     16275      1082  TIP3      H1             -3.8740967194        0.8913092105       36.3512519692  TIP3      936             0.0000000000
     16276      1082  TIP3      H2             -3.5960859833       -0.6389086019       36.5234556264  TIP3      936             0.0000000000
     16277      1083  TIP3      OH2            -0.7171194278        2.1140288705       20.0195075653  TIP3      937             0.0000000000
     16278      1083  TIP3      H1             -0.8773753159        2.0595252704       20.9820048759  TIP3      937             0.0000000000
     16279      1083  TIP3      H2             -0.2939448996        1.2699334198       19.8398735251  TIP3      937             0.0000000000
     16280      1084  TIP3      OH2             2.1844329571        0.0918745277       34.7973192355  TIP3      938             0.0000000000
     16281      1084  TIP3      H1              3.0149804612        0.6023199539       34.9104205799  TIP3      938             0.0000000000
     16282      1084  TIP3      H2              1.5452356185        0.7612153475       35.1061298907  TIP3      938             0.0000000000
     16283      1085  TIP3      OH2            -9.5815004388       -2.9587949149       37.8492212683  TIP3      939             0.0000000000
     16284      1085  TIP3      H1             -8.7825946295       -3.2168324165       37.3820161665  TIP3      939             0.0000000000
     16285      1085  TIP3      H2             -9.2136575814       -2.2923252294       38.4687702522  TIP3      939             0.0000000000
     16286      1086  TIP3      OH2            -4.4350411495       -1.4252956329       23.1309291185  TIP3      940             0.0000000000
     16287      1086  TIP3      H1             -5.3077839914       -1.1167917415       22.7942975178  TIP3      940             0.0000000000
     16288      1086  TIP3      H2             -4.1630104822       -2.0721260809       22.4569764706  TIP3      940             0.0000000000
     16289      1087  TIP3      OH2            -5.4000101786       -3.7641184000       35.1053562656  TIP3      941             0.0000000000
     16290      1087  TIP3      H1             -5.9749494251       -2.9738811232       34.9666297917  TIP3      941             0.0000000000
     16291      1087  TIP3      H2             -5.2613829492       -4.0273031574       34.1649599678  TIP3      941             0.0000000000
     16292      1088  TIP3      OH2            -3.8383016766       -2.8697176358       20.9351708780  TIP3      942             0.0000000000
     16293      1088  TIP3      H1             -4.5609721072       -2.4474366465       20.4122863976  TIP3      942             0.0000000000
     16294      1088  TIP3      H2             -3.0490046961       -2.4535831243       20.5540162660  TIP3      942             0.0000000000
     16295      1089  TIP3      OH2             0.0643656829       -0.8897304645       38.1880096779  TIP3      943             0.0000000000
     16296      1089  TIP3      H1              0.7113468146       -1.3065519788       37.5898953634  TIP3      943             0.0000000000
     16297      1089  TIP3      H2             -0.6562890697       -1.5341456190       38.1815209349  TIP3      943             0.0000000000
     16298      1090  TIP3      OH2            -4.8133109244       -6.2159683137       36.1466620273  TIP3      944             0.0000000000
     16299      1090  TIP3      H1             -4.5758242228       -6.6951045116       35.3199554381  TIP3      944             0.0000000000
     16300      1090  TIP3      H2             -4.8597559096       -5.3228232058       35.7698472178  TIP3      944             0.0000000000
     16301      1091  TIP3      OH2            -4.6929265117       -7.7319576604       33.8072163406  TIP3      945             0.0000000000
     16302      1091  TIP3      H1             -4.1896666229       -7.7491526986       32.9535139196  TIP3      945             0.0000000000
     16303      1091  TIP3      H2             -5.5826018655       -7.6087705214       33.4461431928  TIP3      945             0.0000000000
     16304      1092  TIP3      OH2            -2.6925574478       -2.6614308527       33.5145708906  TIP3      946             0.0000000000
     16305      1092  TIP3      H1             -2.3392456608       -3.1009311638       32.7261080870  TIP3      946             0.0000000000
     16306      1092  TIP3      H2             -3.2106876320       -1.9205034685       33.1442729693  TIP3      946             0.0000000000
     16307      1093  TIP3      OH2             1.3558340429       -4.7935997616       38.9118316496  TIP3      947             0.0000000000
     16308      1093  TIP3      H1              1.3350819339       -5.5845132726       38.3567209990  TIP3      947             0.0000000000
     16309      1093  TIP3      H2              2.3014887438       -4.6044840392       38.9494809673  TIP3      947             0.0000000000
     16310      1094  TIP3      OH2             3.1231847785       -1.1915250701       37.0144760895  TIP3      948             0.0000000000
     16311      1094  TIP3      H1              2.7265461689       -0.9451968412       36.1497323187  TIP3      948             0.0000000000
     16312      1094  TIP3      H2              4.0292938029       -1.4637841867       36.7380186752  TIP3      948             0.0000000000
     16313      1095  TIP3      OH2            -6.6284202653       -4.6248927692       38.1815084443  TIP3      949             0.0000000000
     16314      1095  TIP3      H1             -7.0727147786       -5.2415751644       37.5737012650  TIP3      949             0.0000000000
     16315      1095  TIP3      H2             -6.0057523332       -4.1961452954       37.5670294782  TIP3      949             0.0000000000
     16316      1096  TIP3      OH2            -3.9842823124      -10.5105855621       33.6394438690  TIP3      950             0.0000000000
     16317      1096  TIP3      H1             -4.3701516888       -9.6133452722       33.6016645139  TIP3      950             0.0000000000
     16318      1096  TIP3      H2             -4.6832229888      -11.0261407043       33.2190848465  TIP3      950             0.0000000000
     16319      1097  TIP3      OH2            -2.7533128616       -6.5633716213       37.9475159905  TIP3      951             0.0000000000
     16320      1097  TIP3      H1             -3.5706499519       -6.6143260788       38.4886917761  TIP3      951             0.0000000000
     16321      1097  TIP3      H2             -3.1680703485       -6.4488654588       37.0609232419  TIP3      951             0.0000000000
     16322      1098  TIP3      OH2             0.3882462518       -6.7456084000       36.9084954772  TIP3      952             0.0000000000
     16323      1098  TIP3      H1             -0.4030146830       -6.4965257777       37.4019207632  TIP3      952             0.0000000000
     16324      1098  TIP3      H2              0.7473730830       -7.4312611382       37.5235002772  TIP3      952             0.0000000000
     16325      1099  TIP3      OH2             1.3778341404       -8.4255670880       38.6611955144  TIP3      953             0.0000000000
     16326      1099  TIP3      H1              1.6348704280       -9.3708560194       38.7161804322  TIP3      953             0.0000000000
     16327      1099  TIP3      H2              1.4430938046       -8.1232398699       39.5999670317  TIP3      953             0.0000000000
     16328      1100  TIP3      OH2            -8.5130055042       -6.8904359359       37.7229256740  TIP3      954             0.0000000000
     16329      1100  TIP3      H1             -8.6991729575       -7.7630490389       37.3352802097  TIP3      954             0.0000000000
     16330      1100  TIP3      H2             -8.4602366595       -7.1164879056       38.6807406581  TIP3      954             0.0000000000
     16331      1101  TIP3      OH2            -3.9567879212      -10.9052428657       36.6695284293  TIP3      955             0.0000000000
     16332      1101  TIP3      H1             -3.2768124842      -11.6088709786       36.6887587690  TIP3      955             0.0000000000
     16333      1101  TIP3      H2             -4.0126527378      -10.7832872334       35.7090926819  TIP3      955             0.0000000000
     16334      1102  TIP3      OH2            -4.0114584227       -9.3718741545       39.3882730445  TIP3      956             0.0000000000
     16335      1102  TIP3      H1             -3.8672231862       -9.8610131713       38.5547050825  TIP3      956             0.0000000000
     16336      1102  TIP3      H2             -4.3491273420       -8.5140420979       39.0409844093  TIP3      956             0.0000000000
     16337      1103  TIP3      OH2            -3.3033652343        7.3925266485       21.2248249737  TIP3      957             0.0000000000
     16338      1103  TIP3      H1             -2.9112684360        7.9758136315       21.8929034245  TIP3      957             0.0000000000
     16339      1103  TIP3      H2             -4.2476512484        7.5120099768       21.4268003270  TIP3      957             0.0000000000
     16340      1104  TIP3      OH2           -10.6656512672        2.1216749538       21.5116184387  TIP3      958             0.0000000000
     16341      1104  TIP3      H1             -9.9268337473        1.5264366101       21.3347497047  TIP3      958             0.0000000000
     16342      1104  TIP3      H2            -10.7225701360        2.7093129277       20.7422451005  TIP3      958             0.0000000000
     16343      1105  TIP3      OH2           -11.1703001883        7.2173077474       26.3758566863  TIP3      959             0.0000000000
     16344      1105  TIP3      H1            -11.9331950769        6.7858362511       25.9229332132  TIP3      959             0.0000000000
     16345      1105  TIP3      H2            -10.9889415455        6.5425288255       27.0618575978  TIP3      959             0.0000000000
     16346      1106  TIP3      OH2           -10.4938929414        5.4224549783       28.2882997682  TIP3      960             0.0000000000
     16347      1106  TIP3      H1            -10.9369457554        4.7834658384       28.8815247465  TIP3      960             0.0000000000
     16348      1106  TIP3      H2             -9.8649169669        5.8128976366       28.9390906018  TIP3      960             0.0000000000
     16349      1107  TIP3      OH2             6.5513224243        6.1322704583       31.0690059366  TIP3      961             0.0000000000
     16350      1107  TIP3      H1              7.0302727101        6.4914206531       31.8401319458  TIP3      961             0.0000000000
     16351      1107  TIP3      H2              7.0877605972        6.4005143014       30.3112539116  TIP3      961             0.0000000000
     16352      1108  TIP3      OH2             6.6373548003        5.6297588874       34.1577722914  TIP3      962             0.0000000000
     16353      1108  TIP3      H1              6.2237957187        4.9410775826       33.5880686263  TIP3      962             0.0000000000
     16354      1108  TIP3      H2              6.9176717351        5.0810181618       34.9158312526  TIP3      962             0.0000000000
     16355      1109  TIP3      OH2             5.3026796458        1.4988949110       38.9155189558  TIP3      963             0.0000000000
     16356      1109  TIP3      H1              4.3900923361        1.6295593341       39.2648242280  TIP3      963             0.0000000000
     16357      1109  TIP3      H2              5.6589760591        2.4112192203       39.0360234547  TIP3      963             0.0000000000
     16358      1110  TIP3      OH2             5.9884934150        0.2837266987       23.8715053902  TIP3      964             0.0000000000
     16359      1110  TIP3      H1              6.9238764576        0.5284533902       24.0033592346  TIP3      964             0.0000000000
     16360      1110  TIP3      H2              5.9212350759       -0.5538676460       24.3740017190  TIP3      964             0.0000000000
     16361      1111  TIP3      OH2             6.6338728966       -1.9271742069       25.6706554879  TIP3      965             0.0000000000
     16362      1111  TIP3      H1              5.9496573641       -2.5677140266       25.9704440509  TIP3      965             0.0000000000
     16363      1111  TIP3      H2              7.1366968365       -1.8061941198       26.4975308544  TIP3      965             0.0000000000
     16364      1112  TIP3      OH2             6.4211416574        0.7998159489       30.6041419844  TIP3      966             0.0000000000
     16365      1112  TIP3      H1              7.0540920446        0.0920394991       30.3637803119  TIP3      966             0.0000000000
     16366      1112  TIP3      H2              6.8146968720        1.6053533800       30.2301800233  TIP3      966             0.0000000000
     16367      1113  TIP3      OH2             5.1273837201        3.4985313661       33.3027195729  TIP3      967             0.0000000000
     16368      1113  TIP3      H1              4.4221184900        3.8669570857       33.8625795095  TIP3      967             0.0000000000
     16369      1113  TIP3      H2              4.6234192124        3.2700636533       32.4843390941  TIP3      967             0.0000000000
     16370      1114  TIP3      OH2             5.5510287564       -4.7501136937       20.6616449098  TIP3      968             0.0000000000
     16371      1114  TIP3      H1              5.4309885154       -4.5960271685       19.7201840564  TIP3      968             0.0000000000
     16372      1114  TIP3      H2              5.1729901458       -5.6548781679       20.7391552015  TIP3      968             0.0000000000
     16373      1115  TIP3      OH2             4.7514589200       -3.6551190163       26.8637288607  TIP3      969             0.0000000000
     16374      1115  TIP3      H1              4.4315186942       -4.3446706481       26.2326750211  TIP3      969             0.0000000000
     16375      1115  TIP3      H2              4.0877542637       -3.6680936164       27.5896108660  TIP3      969             0.0000000000
     16376      1116  TIP3      OH2           -10.8143812966       -1.2454726594       30.9195287500  TIP3      970             0.0000000000
     16377      1116  TIP3      H1            -10.6894781246       -1.5505704318       29.9885607063  TIP3      970             0.0000000000
     16378      1116  TIP3      H2             -9.8854251507       -1.2142957280       31.2256650308  TIP3      970             0.0000000000
     16379      1117  TIP3      OH2             5.7768513546       -1.5542187071       36.4723022144  TIP3      971             0.0000000000
     16380      1117  TIP3      H1              6.1579697347       -2.4539795884       36.6446308956  TIP3      971             0.0000000000
     16381      1117  TIP3      H2              6.5411356281       -0.9989578186       36.2426160168  TIP3      971             0.0000000000
     16382      1118  TIP3      OH2             6.6748760050       -3.9635596161       37.2440462066  TIP3      972             0.0000000000
     16383      1118  TIP3      H1              5.8829249331       -4.4903575979       36.9701806295  TIP3      972             0.0000000000
     16384      1118  TIP3      H2              7.3957300369       -4.6302817640       37.1258738346  TIP3      972             0.0000000000
     16385      1119  TIP3      OH2             4.6803823158       -7.2955786368       20.2497948585  TIP3      973             0.0000000000
     16386      1119  TIP3      H1              5.3154928653       -8.0092106806       20.4428461909  TIP3      973             0.0000000000
     16387      1119  TIP3      H2              3.8457255624       -7.7635975631       20.1771503400  TIP3      973             0.0000000000
     16388      1120  TIP3      OH2             4.5188876702       -5.4445159501       24.8667344829  TIP3      974             0.0000000000
     16389      1120  TIP3      H1              4.5926453930       -6.3385136511       25.2678385107  TIP3      974             0.0000000000
     16390      1120  TIP3      H2              4.7123424042       -5.6534999700       23.9447409609  TIP3      974             0.0000000000
     16391      1121  TIP3      OH2             4.8816910954       -4.8867336158       30.4831220978  TIP3      975             0.0000000000
     16392      1121  TIP3      H1              5.6417816471       -4.4837054424       30.9476426304  TIP3      975             0.0000000000
     16393      1121  TIP3      H2              4.3186170205       -5.0744801153       31.2604191022  TIP3      975             0.0000000000
     16394      1122  TIP3      OH2             5.0614496214       -4.4884933960       33.0853998182  TIP3      976             0.0000000000
     16395      1122  TIP3      H1              4.2509987803       -4.1608650160       33.5404332221  TIP3      976             0.0000000000
     16396      1122  TIP3      H2              5.6278062524       -3.6942351748       33.1417836018  TIP3      976             0.0000000000
     16397      1123  TIP3      OH2           -10.6991910492       -6.1979199831       36.3616909991  TIP3      977             0.0000000000
     16398      1123  TIP3      H1            -10.0054456792       -6.2503030004       37.0576887826  TIP3      977             0.0000000000
     16399      1123  TIP3      H2            -11.2315398810       -7.0049024663       36.5406012766  TIP3      977             0.0000000000
     16400      1124  TIP3      OH2             6.9582427411       -9.8702994381       38.3194510773  TIP3      978             0.0000000000
     16401      1124  TIP3      H1              7.3943035616      -10.5045847878       37.7001672584  TIP3      978             0.0000000000
     16402      1124  TIP3      H2              6.7958108603       -9.0933708166       37.7253435531  TIP3      978             0.0000000000
     16403      1125  TIP3      OH2             5.2234810153       -8.0126821320       25.3100568731  TIP3      979             0.0000000000
     16404      1125  TIP3      H1              5.3325954230       -8.6086858577       26.0815077984  TIP3      979             0.0000000000
     16405      1125  TIP3      H2              4.7777100621       -8.6074673584       24.6790463994  TIP3      979             0.0000000000
     16406      1126  TIP3      OH2            -9.7485636259       -7.6790351452       30.2870021139  TIP3      980             0.0000000000
     16407      1126  TIP3      H1             -9.3351461519       -8.5708590301       30.3535659235  TIP3      980             0.0000000000
     16408      1126  TIP3      H2             -8.9732408884       -7.1018883984       30.4657275686  TIP3      980             0.0000000000
     16409      1127  TIP3      OH2           -11.3228338067       -4.8148140871       30.8584249709  TIP3      981             0.0000000000
     16410      1127  TIP3      H1            -10.8172178685       -5.1902127880       30.1013674089  TIP3      981             0.0000000000
     16411      1127  TIP3      H2            -10.6340767256       -4.2562980500       31.2409554706  TIP3      981             0.0000000000
     16412      1128  TIP3      OH2             6.3210190164       -7.7641014806       36.9758938149  TIP3      982             0.0000000000
     16413      1128  TIP3      H1              5.5821120731       -7.5467666050       37.5964185620  TIP3      982             0.0000000000
     16414      1128  TIP3      H2              5.7924905464       -7.8894064146       36.1459093609  TIP3      982             0.0000000000
     16415      1129  TIP3      OH2             6.6631836419       -8.8997185130       21.4311584087  TIP3      983             0.0000000000
     16416      1129  TIP3      H1              7.2593966944       -9.1065810880       20.6619874598  TIP3      983             0.0000000000
     16417      1129  TIP3      H2              7.0008028823       -8.0140229916       21.6736525592  TIP3      983             0.0000000000
     16418      1130  TIP3      OH2           -11.2671338824       -8.7612148799       24.4077250880  TIP3      984             0.0000000000
     16419      1130  TIP3      H1            -11.9457672218       -8.5887144184       25.0714817476  TIP3      984             0.0000000000
     16420      1130  TIP3      H2            -11.0783214749       -7.8726630797       24.0402491707  TIP3      984             0.0000000000
     16421      1131  TIP3      OH2             4.1298147236        6.2332170540       27.1403758724  TIP3      985             0.0000000000
     16422      1131  TIP3      H1              4.7337988575        6.1387222788       26.3720710055  TIP3      985             0.0000000000
     16423      1131  TIP3      H2              4.5151017646        6.9293334306       27.7038521384  TIP3      985             0.0000000000
     16424      1132  TIP3      OH2           -11.1148225157      -10.0140933122       33.2317352882  TIP3      986             0.0000000000
     16425      1132  TIP3      H1            -11.8152716529      -10.3501490201       33.8322775732  TIP3      986             0.0000000000
     16426      1132  TIP3      H2            -11.4586294062       -9.1619347586       32.9395614257  TIP3      986             0.0000000000
     16427      1133  TIP3      OH2            -8.7097088126        3.0941649969       37.0038125411  TIP3      987             0.0000000000
     16428      1133  TIP3      H1             -9.2676961140        2.8850430967       36.2357292061  TIP3      987             0.0000000000
     16429      1133  TIP3      H2             -9.0837563508        2.5085378493       37.6689781475  TIP3      987             0.0000000000
     16430      1134  TIP3      OH2            -5.8154748150        5.1257851299       34.3468894610  TIP3      988             0.0000000000
     16431      1134  TIP3      H1             -6.0712047930        5.7597791650       33.6366947453  TIP3      988             0.0000000000
     16432      1134  TIP3      H2             -4.9333932816        4.8483450593       34.0164256556  TIP3      988             0.0000000000
     16433      1135  TIP3      OH2            -1.8604147269        5.9811202589       36.0941243760  TIP3      989             0.0000000000
     16434      1135  TIP3      H1             -1.8134544357        5.9145817580       37.0682428246  TIP3      989             0.0000000000
     16435      1135  TIP3      H2             -0.9243650250        6.1634230434       35.8859294053  TIP3      989             0.0000000000
     16436      1136  TIP3      OH2             0.4815812176        7.5193932067       35.9341788986  TIP3      990             0.0000000000
     16437      1136  TIP3      H1              1.3198512958        7.1038416124       35.6850117096  TIP3      990             0.0000000000
     16438      1136  TIP3      H2              0.6997660589        7.9492013825       36.7825379032  TIP3      990             0.0000000000
     16439      1137  TIP3      OH2             5.7134043760      -10.6632808136       35.1655735537  TIP3      991             0.0000000000
     16440      1137  TIP3      H1              5.3314852346       -9.9703319869       34.6029294656  TIP3      991             0.0000000000
     16441      1137  TIP3      H2              5.7266105871      -11.4360667045       34.5668585292  TIP3      991             0.0000000000
     16442      1138  TIP3      OH2            -8.7866487971        7.8658069027       33.4062950901  TIP3      992             0.0000000000
     16443      1138  TIP3      H1             -9.6141431575        8.2667406240       33.0540646724  TIP3      992             0.0000000000
     16444      1138  TIP3      H2             -8.8141443006        8.2047830584       34.3237343150  TIP3      992             0.0000000000
     16445      1139  TIP3      OH2            -6.4286178851        7.0842086627       32.3752436418  TIP3      993             0.0000000000
     16446      1139  TIP3      H1             -7.3371151789        7.3458209856       32.6701484880  TIP3      993             0.0000000000
     16447      1139  TIP3      H2             -6.2289797345        7.8237725198       31.7683929131  TIP3      993             0.0000000000
     16448      1140  TIP3      OH2            -1.5583221131        6.8108645150       31.8561368871  TIP3      994             0.0000000000
     16449      1140  TIP3      H1             -2.3460212585        7.3314999077       31.6215226499  TIP3      994             0.0000000000
     16450      1140  TIP3      H2             -1.1346181830        7.4617690114       32.4613899476  TIP3      994             0.0000000000
     16451      1141  TIP3      OH2             0.7140454260        5.6482770162       33.1457377036  TIP3      995             0.0000000000
     16452      1141  TIP3      H1              0.0428600043        5.9920915956       32.5214016566  TIP3      995             0.0000000000
     16453      1141  TIP3      H2              1.4490520587        6.2618231424       32.9406057020  TIP3      995             0.0000000000
     16454      1142  TIP3      OH2             3.0143328048        7.1538616644       32.7943322056  TIP3      996             0.0000000000
     16455      1142  TIP3      H1              3.1789674967        8.0552151627       32.4360105903  TIP3      996             0.0000000000
     16456      1142  TIP3      H2              3.4146453452        6.6217705753       32.0672392524  TIP3      996             0.0000000000
     16457      1143  TIP3      OH2            -9.0440911324        5.9627930404       30.4831735908  TIP3      997             0.0000000000
     16458      1143  TIP3      H1             -9.2576519702        5.3460927791       31.2169662446  TIP3      997             0.0000000000
     16459      1143  TIP3      H2             -8.1233966103        5.6978061279       30.2630975152  TIP3      997             0.0000000000
     16460      1144  TIP3      OH2            -6.6910387455        5.2926621648       29.1571982543  TIP3      998             0.0000000000
     16461      1144  TIP3      H1             -6.7565542912        4.3226832705       29.1442748305  TIP3      998             0.0000000000
     16462      1144  TIP3      H2             -5.8841348719        5.3579618242       29.7222014217  TIP3      998             0.0000000000
     16463      1145  TIP3      OH2            -4.5097256106        5.1777962813       30.7071350495  TIP3      999             0.0000000000
     16464      1145  TIP3      H1             -3.9974143785        4.3833761685       30.4765196817  TIP3      999             0.0000000000
     16465      1145  TIP3      H2             -4.3243543264        5.2406985362       31.6649711509  TIP3      999             0.0000000000
     16466      1146  TIP3      OH2            -0.2440556164       -9.0076619482       29.0120620448  TIP3      1000            0.0000000000
     16467      1146  TIP3      H1             -1.1418966146       -8.6491858102       28.8952128058  TIP3      1000            0.0000000000
     16468      1146  TIP3      H2             -0.4233615039       -9.9371606307       29.1970236119  TIP3      1000            0.0000000000
     16469      1147  TIP3      OH2             4.0360412753       -9.7207482024       29.3489400168  TIP3      1001            0.0000000000
     16470      1147  TIP3      H1              4.6264304528       -9.8874148567       28.5850155981  TIP3      1001            0.0000000000
     16471      1147  TIP3      H2              3.1844053218      -10.0781196681       29.0013069782  TIP3      1001            0.0000000000
     16472      1148  TIP3      OH2             5.9955975896       -9.7762882994       27.4246389422  TIP3      1002            0.0000000000
     16473      1148  TIP3      H1              6.4330047325      -10.5239410018       26.9565468397  TIP3      1002            0.0000000000
     16474      1148  TIP3      H2              6.7520865064       -9.2143008546       27.6866940260  TIP3      1002            0.0000000000
     16475      1149  TIP3      OH2            -8.2722412281      -10.4192815750       26.7936500012  TIP3      1003            0.0000000000
     16476      1149  TIP3      H1             -8.9824424713      -10.5723118083       26.1514146505  TIP3      1003            0.0000000000
     16477      1149  TIP3      H2             -7.9365398461      -11.3302939385       26.9499201214  TIP3      1003            0.0000000000
     16478      1150  TIP3      OH2            -9.9750815273      -10.3152826819       22.6862310112  TIP3      1004            0.0000000000
     16479      1150  TIP3      H1             -9.6357692702       -9.6587515968       22.0433402954  TIP3      1004            0.0000000000
     16480      1150  TIP3      H2            -10.2972819614       -9.7113099672       23.4071923447  TIP3      1004            0.0000000000
     16481      1151  TIP3      OH2            -4.0452686161      -11.7992218037       26.7629590443  TIP3      1005            0.0000000000
     16482      1151  TIP3      H1             -3.1713294051      -11.3726802944       26.6923282506  TIP3      1005            0.0000000000
     16483      1151  TIP3      H2             -4.4452327928      -11.3299605035       27.5050202042  TIP3      1005            0.0000000000
     16484      1152  TIP3      OH2             1.9337240344      -10.6906240390       27.8664001386  TIP3      1006            0.0000000000
     16485      1152  TIP3      H1              1.3490839297      -10.1360288692       27.3307604462  TIP3      1006            0.0000000000
     16486      1152  TIP3      H2              1.3140551067      -11.3916893776       28.1620413431  TIP3      1006            0.0000000000
     16487      1153  TIP3      OH2             2.7365874165      -10.4530638305       24.0067460805  TIP3      1007            0.0000000000
     16488      1153  TIP3      H1              1.9842591713       -9.8983315418       24.2912895196  TIP3      1007            0.0000000000
     16489      1153  TIP3      H2              2.5370066550      -11.2999433648       24.4686483957  TIP3      1007            0.0000000000
     16490      1154  TIP3      OH2            -9.7967457643        5.6953402800       23.5675006076  TIP3      1008            0.0000000000
     16491      1154  TIP3      H1            -10.5393180573        5.7394359898       22.9188494629  TIP3      1008            0.0000000000
     16492      1154  TIP3      H2             -9.6461066294        6.6398634970       23.6726334408  TIP3      1008            0.0000000000
     16493      1155  TIP3      OH2            -8.5681487264       -8.4298428444       21.1710284507  TIP3      1009            0.0000000000
     16494      1155  TIP3      H1             -7.7646103927       -8.5316152070       20.6497127523  TIP3      1009            0.0000000000
     16495      1155  TIP3      H2             -8.1889820907       -8.3296162542       22.0541643467  TIP3      1009            0.0000000000
     16496      1156  TIP3      OH2            -2.7761385068       -8.1103572445       23.7290907511  TIP3      1010            0.0000000000
     16497      1156  TIP3      H1             -2.5843828788       -8.8518454532       24.3259874814  TIP3      1010            0.0000000000
     16498      1156  TIP3      H2             -2.3741304788       -7.3623994828       24.2335078043  TIP3      1010            0.0000000000
     16499      1157  TIP3      OH2            -0.6206647779        7.6225045655       22.0660754986  TIP3      1011            0.0000000000
     16500      1157  TIP3      H1              0.3115449519        7.3709483290       21.8793136142  TIP3      1011            0.0000000000
     16501      1157  TIP3      H2             -1.0544688049        7.1491232513       21.3295754689  TIP3      1011            0.0000000000
     16502      1158  TIP3      OH2             5.6597450561        5.9492488203       24.9357186871  TIP3      1012            0.0000000000
     16503      1158  TIP3      H1              5.2821962693        5.1841677478       24.4327718848  TIP3      1012            0.0000000000
     16504      1158  TIP3      H2              5.5158024076        6.6781122938       24.2952680304  TIP3      1012            0.0000000000
     16505      1159  TIP3      OH2            -9.2247057583       -9.7325555983       36.4489004489  TIP3      1013            0.0000000000
     16506      1159  TIP3      H1             -9.7372414801      -10.5604037503       36.4151405533  TIP3      1013            0.0000000000
     16507      1159  TIP3      H2             -8.4588063837      -10.0084961598       37.0016996015  TIP3      1013            0.0000000000
     16508      1160  TIP3      OH2            -7.1897243526      -10.5999689329       38.2234112945  TIP3      1014            0.0000000000
     16509      1160  TIP3      H1             -6.2823870402      -10.8213827495       37.9371140667  TIP3      1014            0.0000000000
     16510      1160  TIP3      H2             -7.4199184856      -11.4059057679       38.7099033542  TIP3      1014            0.0000000000
     16511      1161  TIP3      OH2            -7.2732456356        5.7185466277       20.5888391550  TIP3      1015            0.0000000000
     16512      1161  TIP3      H1             -8.0541917816        5.2737039581       20.9355968751  TIP3      1015            0.0000000000
     16513      1161  TIP3      H2             -6.9939494369        6.2490463118       21.3647511698  TIP3      1015            0.0000000000
     16514      1162  TIP3      OH2             1.6526231650      -11.1112068895       38.6858059692  TIP3      1016            0.0000000000
     16515      1162  TIP3      H1              1.8683153281      -11.6519386199       39.4749478044  TIP3      1016            0.0000000000
     16516      1162  TIP3      H2              2.4760095606      -11.2353462125       38.1736789352  TIP3      1016            0.0000000000
     16517      1163  TIP3      OH2             4.8727142772        5.0643698908       36.8610656828  TIP3      1017            0.0000000000
     16518      1163  TIP3      H1              4.2607308535        4.9830140392       36.0939279555  TIP3      1017            0.0000000000
     16519      1163  TIP3      H2              4.7324504492        6.0143938729       37.0691925558  TIP3      1017            0.0000000000
     16520      1164  TIP3      OH2            19.7341553454       -1.3784532400       26.8710363294  TIP3      1018            0.0000000000
     16521      1164  TIP3      H1             19.8379684683       -0.4403955039       27.1345368323  TIP3      1018            0.0000000000
     16522      1164  TIP3      H2             18.9436603621       -1.3228194556       26.3099235728  TIP3      1018            0.0000000000
     16523      1165  TIP3      OH2            18.5831956217       -2.8552144996       30.0421992587  TIP3      1019            0.0000000000
     16524      1165  TIP3      H1             18.5278027110       -2.8594160856       31.0265883689  TIP3      1019            0.0000000000
     16525      1165  TIP3      H2             17.6620622390       -2.7253003881       29.7528264775  TIP3      1019            0.0000000000
     16526      1166  TIP3      OH2            10.4062365689       -2.0798261237       31.7513279402  TIP3      1020            0.0000000000
     16527      1166  TIP3      H1             10.5357366081       -2.9239075705       32.2034218274  TIP3      1020            0.0000000000
     16528      1166  TIP3      H2             11.2561104485       -1.6416252626       31.9350457175  TIP3      1020            0.0000000000
     16529      1167  TIP3      OH2            21.3814440549        0.9860643692       29.0455469265  TIP3      1021            0.0000000000
     16530      1167  TIP3      H1             21.2689769310        0.2898325844       29.7194706020  TIP3      1021            0.0000000000
     16531      1167  TIP3      H2             21.6987517707        1.7343195088       29.5844118010  TIP3      1021            0.0000000000
     16532      1168  TIP3      OH2            11.8435637280        2.3757812671       29.8844704042  TIP3      1022            0.0000000000
     16533      1168  TIP3      H1             11.4362649413        1.5229172054       29.6383275929  TIP3      1022            0.0000000000
     16534      1168  TIP3      H2             12.7926364995        2.1229185758       29.8226537594  TIP3      1022            0.0000000000
     16535      1169  TIP3      OH2             8.2225194680       -4.7331781999       25.4584564095  TIP3      1023            0.0000000000
     16536      1169  TIP3      H1              8.2173802625       -3.7606345413       25.4375741628  TIP3      1023            0.0000000000
     16537      1169  TIP3      H2              7.3257093922       -4.9166901358       25.7682175624  TIP3      1023            0.0000000000
     16538      1170  TIP3      OH2             8.6255349631       -2.2793581291       27.8860063892  TIP3      1024            0.0000000000
     16539      1170  TIP3      H1              9.1795139985       -2.9877354279       28.2925067609  TIP3      1024            0.0000000000
     16540      1170  TIP3      H2              9.3085988615       -1.6514742659       27.6062917182  TIP3      1024            0.0000000000
     16541      1171  TIP3      OH2            19.3342555537        6.5055158131       28.8352170318  TIP3      1025            0.0000000000
     16542      1171  TIP3      H1             19.7408916970        5.7282247056       28.3847628020  TIP3      1025            0.0000000000
     16543      1171  TIP3      H2             18.8814308913        6.0526832931       29.5697730599  TIP3      1025            0.0000000000
     16544      1172  TIP3      OH2            16.4965122724        0.0623842808       30.9927358993  TIP3      1026            0.0000000000
     16545      1172  TIP3      H1             16.8135884663        0.1042994664       30.0849348423  TIP3      1026            0.0000000000
     16546      1172  TIP3      H2             17.2546950099        0.4447437860       31.4879121124  TIP3      1026            0.0000000000
     16547      1173  TIP3      OH2            25.4412057065       -7.8665240288       30.8694603947  TIP3      1027            0.0000000000
     16548      1173  TIP3      H1             25.7120588330       -7.4738439339       31.7172958430  TIP3      1027            0.0000000000
     16549      1173  TIP3      H2             25.8270960481       -7.2263528138       30.2434584316  TIP3      1027            0.0000000000
     16550      1174  TIP3      OH2            20.1965383889       -4.9970217479       31.3753062926  TIP3      1028            0.0000000000
     16551      1174  TIP3      H1             20.5139940951       -5.6759354027       31.9918454118  TIP3      1028            0.0000000000
     16552      1174  TIP3      H2             20.3811653685       -5.3727194157       30.4992611319  TIP3      1028            0.0000000000
     16553      1175  TIP3      OH2            13.1234601278       -7.3647835545       27.9693935975  TIP3      1029            0.0000000000
     16554      1175  TIP3      H1             13.0749620183       -6.4773292249       27.5423513791  TIP3      1029            0.0000000000
     16555      1175  TIP3      H2             12.5278120315       -7.8738369614       27.3826893282  TIP3      1029            0.0000000000
     16556      1176  TIP3      OH2            21.1467531135       -7.1496209504       26.8534198670  TIP3      1030            0.0000000000
     16557      1176  TIP3      H1             20.8824487460       -7.3232350517       27.7737979190  TIP3      1030            0.0000000000
     16558      1176  TIP3      H2             20.6625066395       -6.3215037205       26.6925753895  TIP3      1030            0.0000000000
     16559      1177  TIP3      OH2            10.1694797035       -4.0503853098       29.1775007443  TIP3      1031            0.0000000000
     16560      1177  TIP3      H1             10.7673332344       -4.4306285376       29.8418574002  TIP3      1031            0.0000000000
     16561      1177  TIP3      H2             10.2007211154       -4.7303622635       28.4740958012  TIP3      1031            0.0000000000
     16562      1178  TIP3      OH2            14.1727658432       -3.0103674088       28.4194219755  TIP3      1032            0.0000000000
     16563      1178  TIP3      H1             14.9745635586       -3.4850147925       28.7166367588  TIP3      1032            0.0000000000
     16564      1178  TIP3      H2             13.7277411016       -3.7429417672       27.9549995280  TIP3      1032            0.0000000000
     16565      1179  TIP3      OH2            25.5022993420       -6.6487581424       33.5648629165  TIP3      1033            0.0000000000
     16566      1179  TIP3      H1             24.9861197121       -5.9615265197       33.0863409112  TIP3      1033            0.0000000000
     16567      1179  TIP3      H2             26.1834727685       -6.0481878903       33.9186036118  TIP3      1033            0.0000000000
     16568      1180  TIP3      OH2            12.2350180988       -7.9840074511       32.3977580828  TIP3      1034            0.0000000000
     16569      1180  TIP3      H1             11.9083689239       -7.5094461548       31.5993678547  TIP3      1034            0.0000000000
     16570      1180  TIP3      H2             11.4335668555       -7.9832224428       32.9654350931  TIP3      1034            0.0000000000
     16571      1181  TIP3      OH2            19.0833336894        1.3897746117       25.9493696642  TIP3      1035            0.0000000000
     16572      1181  TIP3      H1             19.3867050985        1.3192700904       25.0320658018  TIP3      1035            0.0000000000
     16573      1181  TIP3      H2             18.7777432282        2.3206063941       26.0036666153  TIP3      1035            0.0000000000
     16574      1182  TIP3      OH2            14.0933220807       -0.1808661292       32.1368485951  TIP3      1036            0.0000000000
     16575      1182  TIP3      H1             13.5982607189        0.6433830789       32.3577595854  TIP3      1036            0.0000000000
     16576      1182  TIP3      H2             14.8765052662        0.1723728975       31.6573294336  TIP3      1036            0.0000000000
     16577      1183  TIP3      OH2            22.9194386778       -7.3418412661       29.1063928151  TIP3      1037            0.0000000000
     16578      1183  TIP3      H1             22.4621553844       -7.8863164358       29.7722818018  TIP3      1037            0.0000000000
     16579      1183  TIP3      H2             23.0843507207       -6.4897198362       29.5851671611  TIP3      1037            0.0000000000
     16580      1184  TIP3      OH2            11.7113937739       -6.2305405906       30.1044527092  TIP3      1038            0.0000000000
     16581      1184  TIP3      H1             12.2972761737       -5.5903853025       30.5715116015  TIP3      1038            0.0000000000
     16582      1184  TIP3      H2             12.2603831595       -6.5031827416       29.3417024823  TIP3      1038            0.0000000000
     16583      1185  TIP3      OH2            12.6148597280        1.7449403792       33.0929299108  TIP3      1039            0.0000000000
     16584      1185  TIP3      H1             12.5693737116        2.6817901464       32.8291034720  TIP3      1039            0.0000000000
     16585      1185  TIP3      H2             11.8140427809        1.6591282610       33.6626895582  TIP3      1039            0.0000000000
     16586      1186  TIP3      OH2             8.7686262867        1.0074818321       23.5082987562  TIP3      1040            0.0000000000
     16587      1186  TIP3      H1              8.4871247299        1.3982960772       22.6430028061  TIP3      1040            0.0000000000
     16588      1186  TIP3      H2              8.7963631806        1.7680202913       24.1006792838  TIP3      1040            0.0000000000
     16589      1187  TIP3      OH2            22.4806691096        2.9327093056       30.8083788033  TIP3      1041            0.0000000000
     16590      1187  TIP3      H1             21.5446529016        2.9868162751       31.1115034343  TIP3      1041            0.0000000000
     16591      1187  TIP3      H2             22.5067174628        3.8288937117       30.4098315226  TIP3      1041            0.0000000000
     16592      1188  TIP3      OH2            22.6817964392       -7.8355994541       32.5048365375  TIP3      1042            0.0000000000
     16593      1188  TIP3      H1             21.8715529973       -7.9998556702       31.9733046685  TIP3      1042            0.0000000000
     16594      1188  TIP3      H2             23.3241497616       -7.5077054606       31.8569951936  TIP3      1042            0.0000000000
     16595      1189  TIP3      OH2            15.3929925026      -10.7113418741       29.7317090125  TIP3      1043            0.0000000000
     16596      1189  TIP3      H1             15.0752837742      -11.6273807710       29.8569385254  TIP3      1043            0.0000000000
     16597      1189  TIP3      H2             14.6049808860      -10.2238521523       30.0793147413  TIP3      1043            0.0000000000
     16598      1190  TIP3      OH2            20.8169878626        4.4773369393       27.5792725267  TIP3      1044            0.0000000000
     16599      1190  TIP3      H1             20.8988257282        3.8176031907       26.8765934886  TIP3      1044            0.0000000000
     16600      1190  TIP3      H2             21.4445102526        5.1790292104       27.2797209801  TIP3      1044            0.0000000000
     16601      1191  TIP3      OH2            22.2517189548        2.4529767757       25.5070133282  TIP3      1045            0.0000000000
     16602      1191  TIP3      H1             21.9705290514        1.8713985246       24.7704347085  TIP3      1045            0.0000000000
     16603      1191  TIP3      H2             22.0774006168        1.8932843900       26.2914566965  TIP3      1045            0.0000000000
     16604      1192  TIP3      OH2            23.4385942642        1.1374638549       34.5427078112  TIP3      1046            0.0000000000
     16605      1192  TIP3      H1             23.4163300090        0.5332382839       33.7569377717  TIP3      1046            0.0000000000
     16606      1192  TIP3      H2             23.5571641870        1.9880374670       34.0730740544  TIP3      1046            0.0000000000
     16607      1193  TIP3      OH2            17.7782920476       -2.3254448329       24.1399085436  TIP3      1047            0.0000000000
     16608      1193  TIP3      H1             17.4944415223       -1.4124519821       23.9258047458  TIP3      1047            0.0000000000
     16609      1193  TIP3      H2             18.4661957454       -2.4581301941       23.4584493352  TIP3      1047            0.0000000000
     16610      1194  TIP3      OH2            25.0089443234       -2.2994012202       32.4523634665  TIP3      1048            0.0000000000
     16611      1194  TIP3      H1             24.9028252463       -1.5119391495       31.9022187609  TIP3      1048            0.0000000000
     16612      1194  TIP3      H2             25.9379471794       -2.5329765932       32.2826585346  TIP3      1048            0.0000000000
     16613      1195  TIP3      OH2            22.0187927758       -1.4138821600       25.3450861170  TIP3      1049            0.0000000000
     16614      1195  TIP3      H1             21.2141508915       -1.5652752002       25.8863155290  TIP3      1049            0.0000000000
     16615      1195  TIP3      H2             22.6740946279       -1.9360722444       25.8383970495  TIP3      1049            0.0000000000
     16616      1196  TIP3      OH2            21.2911359782       -3.1769649366       34.4735294928  TIP3      1050            0.0000000000
     16617      1196  TIP3      H1             21.7638861987       -2.3552177615       34.6924201151  TIP3      1050            0.0000000000
     16618      1196  TIP3      H2             20.4049940917       -2.8208860315       34.2740417581  TIP3      1050            0.0000000000
     16619      1197  TIP3      OH2            12.8235917591       -1.2025887636       26.9938646909  TIP3      1051            0.0000000000
     16620      1197  TIP3      H1             12.7195347471       -1.6088328257       26.1097591334  TIP3      1051            0.0000000000
     16621      1197  TIP3      H2             13.4069684986       -1.8382965265       27.4570484552  TIP3      1051            0.0000000000
     16622      1198  TIP3      OH2            14.4806571012        1.7845983010       29.6461822673  TIP3      1052            0.0000000000
     16623      1198  TIP3      H1             14.6315800542        2.0840818394       28.7317567311  TIP3      1052            0.0000000000
     16624      1198  TIP3      H2             15.3490486840        1.7890733906       30.0686279642  TIP3      1052            0.0000000000
     16625      1199  TIP3      OH2            13.1203456404       -2.2627071528       30.8254194689  TIP3      1053            0.0000000000
     16626      1199  TIP3      H1             13.3757918723       -2.3141620216       29.8753208402  TIP3      1053            0.0000000000
     16627      1199  TIP3      H2             13.7043011940       -1.5397703931       31.1551990138  TIP3      1053            0.0000000000
     16628      1200  TIP3      OH2            19.9673270586        3.2438919866       31.5763712446  TIP3      1054            0.0000000000
     16629      1200  TIP3      H1             19.7374876704        3.8954039698       32.2591865579  TIP3      1054            0.0000000000
     16630      1200  TIP3      H2             19.2875849028        2.5555943690       31.7394994995  TIP3      1054            0.0000000000
     16631      1201  TIP3      OH2            14.1686871050        1.8324238973       35.3862093697  TIP3      1055            0.0000000000
     16632      1201  TIP3      H1             13.6362976918        2.5413653573       35.8063992485  TIP3      1055            0.0000000000
     16633      1201  TIP3      H2             13.7071728172        1.7297586024       34.5276634660  TIP3      1055            0.0000000000
     16634      1202  TIP3      OH2            20.4493133370       -2.6772114238       23.1067437046  TIP3      1056            0.0000000000
     16635      1202  TIP3      H1             20.9432726161       -1.9974504545       23.5952665980  TIP3      1056            0.0000000000
     16636      1202  TIP3      H2             20.3470102727       -2.2131036898       22.2370823559  TIP3      1056            0.0000000000
     16637      1203  TIP3      OH2            11.3796547152       -1.6311015879       34.3303030165  TIP3      1057            0.0000000000
     16638      1203  TIP3      H1             11.5140318919       -0.6937745108       34.5314354855  TIP3      1057            0.0000000000
     16639      1203  TIP3      H2             10.6091942253       -1.8443500296       34.8881790853  TIP3      1057            0.0000000000
     16640      1204  TIP3      OH2            18.1890193223        4.1644965704       25.8299294014  TIP3      1058            0.0000000000
     16641      1204  TIP3      H1             17.8728801143        4.8205663599       26.4728539555  TIP3      1058            0.0000000000
     16642      1204  TIP3      H2             17.6906566538        4.4103614349       25.0161747217  TIP3      1058            0.0000000000
     16643      1205  TIP3      OH2            12.6070371222        3.8761041331       36.3725341637  TIP3      1059            0.0000000000
     16644      1205  TIP3      H1             12.4359050324        4.1280996860       35.4370290495  TIP3      1059            0.0000000000
     16645      1205  TIP3      H2             11.6960630625        3.6280946689       36.6375442805  TIP3      1059            0.0000000000
     16646      1206  TIP3      OH2            23.3379815936      -11.1883800485       23.0248385386  TIP3      1060            0.0000000000
     16647      1206  TIP3      H1             22.4703360637      -11.6280181249       23.0697092643  TIP3      1060            0.0000000000
     16648      1206  TIP3      H2             23.0879215358      -10.2756224762       22.7862914863  TIP3      1060            0.0000000000
     16649      1207  TIP3      OH2            11.7090526328       -2.4610230090       24.6165995013  TIP3      1061            0.0000000000
     16650      1207  TIP3      H1             11.4199368588       -1.5745114754       24.3222006417  TIP3      1061            0.0000000000
     16651      1207  TIP3      H2             11.7430163267       -2.9545072719       23.7883609582  TIP3      1061            0.0000000000
     16652      1208  TIP3      OH2             8.3609218052        0.4612006083       33.7994629691  TIP3      1062            0.0000000000
     16653      1208  TIP3      H1              7.9637448215        0.6792393999       32.9425812292  TIP3      1062            0.0000000000
     16654      1208  TIP3      H2              8.7869939697       -0.3945921345       33.6065740001  TIP3      1062            0.0000000000
     16655      1209  TIP3      OH2             8.0628504562        3.2116799825       30.1655385087  TIP3      1063            0.0000000000
     16656      1209  TIP3      H1              9.0075061899        3.0428136265       30.0229394895  TIP3      1063            0.0000000000
     16657      1209  TIP3      H2              8.1084339508        3.6590367906       31.0262279434  TIP3      1063            0.0000000000
     16658      1210  TIP3      OH2            26.1474546524        3.5690530889       35.9440310359  TIP3      1064            0.0000000000
     16659      1210  TIP3      H1             25.6998578680        2.8832047714       35.4368700425  TIP3      1064            0.0000000000
     16660      1210  TIP3      H2             25.4110074820        3.8413971765       36.5249675281  TIP3      1064            0.0000000000
     16661      1211  TIP3      OH2            16.9091276424        3.2738979598       35.5490472706  TIP3      1065            0.0000000000
     16662      1211  TIP3      H1             16.9465977809        4.2292879690       35.7871851790  TIP3      1065            0.0000000000
     16663      1211  TIP3      H2             16.0135964871        3.2270166646       35.1633587509  TIP3      1065            0.0000000000
     16664      1212  TIP3      OH2            17.5599723948        7.1300613254       25.7219440853  TIP3      1066            0.0000000000
     16665      1212  TIP3      H1             17.3434547231        7.2064271504       24.7860167126  TIP3      1066            0.0000000000
     16666      1212  TIP3      H2             17.4983463062        8.0600080287       26.0344659615  TIP3      1066            0.0000000000
     16667      1213  TIP3      OH2            11.4340855696        5.7382739494       26.5637776830  TIP3      1067            0.0000000000
     16668      1213  TIP3      H1             11.6522769982        5.3787467051       27.4558678989  TIP3      1067            0.0000000000
     16669      1213  TIP3      H2             10.6583305074        5.1984427293       26.2879246991  TIP3      1067            0.0000000000
     16670      1214  TIP3      OH2            20.0429125100        5.9778579914       24.6655031226  TIP3      1068            0.0000000000
     16671      1214  TIP3      H1             19.4756005714        6.5178933201       25.2326251064  TIP3      1068            0.0000000000
     16672      1214  TIP3      H2             19.6117044288        5.1131160215       24.7655154974  TIP3      1068            0.0000000000
     16673      1215  TIP3      OH2            22.9104725047       -4.6043753751       36.2231093502  TIP3      1069            0.0000000000
     16674      1215  TIP3      H1             22.4502241572       -4.0813966981       35.5395088162  TIP3      1069            0.0000000000
     16675      1215  TIP3      H2             22.8414288535       -5.5018481490       35.8498669462  TIP3      1069            0.0000000000
     16676      1216  TIP3      OH2            10.6533968652        1.4946916392       34.7986876023  TIP3      1070            0.0000000000
     16677      1216  TIP3      H1             10.7683376982        1.1210181019       35.7030336316  TIP3      1070            0.0000000000
     16678      1216  TIP3      H2              9.7400599519        1.2057510250       34.5757541300  TIP3      1070            0.0000000000
     16679      1217  TIP3      OH2            13.0884511717       -9.7036335877       30.5598299958  TIP3      1071            0.0000000000
     16680      1217  TIP3      H1             12.1578071605       -9.5980683861       30.2567810339  TIP3      1071            0.0000000000
     16681      1217  TIP3      H2             13.0450989233       -9.2111240114       31.4064017036  TIP3      1071            0.0000000000
     16682      1218  TIP3      OH2            17.9945639731      -10.2048934257       33.9748434426  TIP3      1072            0.0000000000
     16683      1218  TIP3      H1             18.3497889008      -10.6152717219       34.7871515732  TIP3      1072            0.0000000000
     16684      1218  TIP3      H2             17.0251722931      -10.2866248964       34.0389654080  TIP3      1072            0.0000000000
     16685      1219  TIP3      OH2            20.7352437489       -6.0635642304       34.3098402859  TIP3      1073            0.0000000000
     16686      1219  TIP3      H1             20.8064289513       -6.5972578666       35.1249306043  TIP3      1073            0.0000000000
     16687      1219  TIP3      H2             20.8328763099       -5.1597759999       34.6414530445  TIP3      1073            0.0000000000
     16688      1220  TIP3      OH2            16.8601026203       -7.4037282429       21.0932811681  TIP3      1074            0.0000000000
     16689      1220  TIP3      H1             16.5797803149       -7.6575955541       21.9982877615  TIP3      1074            0.0000000000
     16690      1220  TIP3      H2             16.9939696304       -8.2564587192       20.6818286008  TIP3      1074            0.0000000000
     16691      1221  TIP3      OH2            13.1538361045       -4.8148176662       31.7708854251  TIP3      1075            0.0000000000
     16692      1221  TIP3      H1             12.3171736848       -4.9311709733       32.2747496556  TIP3      1075            0.0000000000
     16693      1221  TIP3      H2             13.1509709659       -3.8426262084       31.6405235764  TIP3      1075            0.0000000000
     16694      1222  TIP3      OH2            13.0884052818       -5.0323619331       26.7341327578  TIP3      1076            0.0000000000
     16695      1222  TIP3      H1             12.1371327433       -5.0403492863       26.5176828003  TIP3      1076            0.0000000000
     16696      1222  TIP3      H2             13.4843971273       -5.2895889772       25.8791901600  TIP3      1076            0.0000000000
     16697      1223  TIP3      OH2            18.9576100874       -4.3044576503       25.6735953722  TIP3      1077            0.0000000000
     16698      1223  TIP3      H1             18.5537863977       -3.5399365937       25.2034738615  TIP3      1077            0.0000000000
     16699      1223  TIP3      H2             19.2983351223       -4.8000303875       24.9209552840  TIP3      1077            0.0000000000
     16700      1224  TIP3      OH2            17.7362556639       -3.8417072516       36.6526136377  TIP3      1078            0.0000000000
     16701      1224  TIP3      H1             17.3357619448       -4.7004364496       36.8910360956  TIP3      1078            0.0000000000
     16702      1224  TIP3      H2             18.4836835551       -3.8269731880       37.2871634649  TIP3      1078            0.0000000000
     16703      1225  TIP3      OH2            19.9430979644       -4.6454090860       28.2271770603  TIP3      1079            0.0000000000
     16704      1225  TIP3      H1             19.3216181272       -4.1426277695       28.7873407615  TIP3      1079            0.0000000000
     16705      1225  TIP3      H2             19.6727651936       -4.2593622390       27.3613042529  TIP3      1079            0.0000000000
     16706      1226  TIP3      OH2            10.6742089915       -4.9180650512       32.8727236453  TIP3      1080            0.0000000000
     16707      1226  TIP3      H1             10.8961340059       -4.4603279788       33.7006330308  TIP3      1080            0.0000000000
     16708      1226  TIP3      H2             10.3789470316       -5.7879601707       33.2141388364  TIP3      1080            0.0000000000
     16709      1227  TIP3      OH2             7.6953264193       -7.3599463587       27.9760901565  TIP3      1081            0.0000000000
     16710      1227  TIP3      H1              8.5432627384       -7.5467524145       28.4259171351  TIP3      1081            0.0000000000
     16711      1227  TIP3      H2              7.9466283804       -7.3425540107       27.0249699380  TIP3      1081            0.0000000000
     16712      1228  TIP3      OH2             7.9031258958       -6.6725064843       22.6581653222  TIP3      1082            0.0000000000
     16713      1228  TIP3      H1              8.7819850438       -6.4596170055       22.3416330233  TIP3      1082            0.0000000000
     16714      1228  TIP3      H2              7.9063226331       -6.3302849876       23.5703270530  TIP3      1082            0.0000000000
     16715      1229  TIP3      OH2            18.7654889929       -2.9632506754       32.7551314161  TIP3      1083            0.0000000000
     16716      1229  TIP3      H1             19.4253256774       -3.6439127517       32.4988025351  TIP3      1083            0.0000000000
     16717      1229  TIP3      H2             18.1357782035       -3.4914023938       33.3054054028  TIP3      1083            0.0000000000
     16718      1230  TIP3      OH2            15.8976490913       -7.6815637102       27.7344273766  TIP3      1084            0.0000000000
     16719      1230  TIP3      H1             14.9133264607       -7.6982712550       27.7864087773  TIP3      1084            0.0000000000
     16720      1230  TIP3      H2             16.1456713554       -7.6492550264       28.6662735310  TIP3      1084            0.0000000000
     16721      1231  TIP3      OH2            10.3525379885       -5.8067925554       26.9071819736  TIP3      1085            0.0000000000
     16722      1231  TIP3      H1              9.6430892046       -5.5668340559       26.2687888544  TIP3      1085            0.0000000000
     16723      1231  TIP3      H2             10.6197352213       -6.6882532979       26.5559743639  TIP3      1085            0.0000000000
     16724      1232  TIP3      OH2            13.9256946088       -5.2803549811       24.0628899524  TIP3      1086            0.0000000000
     16725      1232  TIP3      H1             14.8382444385       -5.6069349213       24.2001204667  TIP3      1086            0.0000000000
     16726      1232  TIP3      H2             14.0153508351       -4.3409610401       24.2691514446  TIP3      1086            0.0000000000
     16727      1233  TIP3      OH2            20.6342476136       -8.5317680967       30.8141681784  TIP3      1087            0.0000000000
     16728      1233  TIP3      H1             19.9144604824       -8.5063825135       31.4895880515  TIP3      1087            0.0000000000
     16729      1233  TIP3      H2             20.2133386382       -9.1141066165       30.1399684142  TIP3      1087            0.0000000000
     16730      1234  TIP3      OH2            12.2844633545       -3.9338433643       21.8644316923  TIP3      1088            0.0000000000
     16731      1234  TIP3      H1             12.3372006560       -4.9013184388       21.9831607710  TIP3      1088            0.0000000000
     16732      1234  TIP3      H2             13.2245260336       -3.7068702599       21.8310703688  TIP3      1088            0.0000000000
     16733      1235  TIP3      OH2            22.6620422733        8.1768988022       37.5738168595  TIP3      1089            0.0000000000
     16734      1235  TIP3      H1             23.0833288662        8.7732097248       36.9494708490  TIP3      1089            0.0000000000
     16735      1235  TIP3      H2             23.4570448046        7.6581278223       37.8661120127  TIP3      1089            0.0000000000
     16736      1236  TIP3      OH2            10.9106496992       -0.1457189376       37.0159541629  TIP3      1090            0.0000000000
     16737      1236  TIP3      H1             11.5410381212       -0.0753813593       37.7699658830  TIP3      1090            0.0000000000
     16738      1236  TIP3      H2             10.0522595946       -0.1052273598       37.4810002863  TIP3      1090            0.0000000000
     16739      1237  TIP3      OH2            16.2261246544       -4.7446247322       29.3018023097  TIP3      1091            0.0000000000
     16740      1237  TIP3      H1             17.1155627667       -5.1367641091       29.3299157783  TIP3      1091            0.0000000000
     16741      1237  TIP3      H2             15.7851311272       -5.1425381638       30.0718394999  TIP3      1091            0.0000000000
     16742      1238  TIP3      OH2            11.2782978132       -8.3189254363       26.0794159257  TIP3      1092            0.0000000000
     16743      1238  TIP3      H1             10.7028670007       -8.9929233927       26.5048128398  TIP3      1092            0.0000000000
     16744      1238  TIP3      H2             11.8582064585       -8.9078481082       25.5773533391  TIP3      1092            0.0000000000
     16745      1239  TIP3      OH2            15.3705643561       -6.1945730145       31.6444606258  TIP3      1093            0.0000000000
     16746      1239  TIP3      H1             14.5177398526       -5.6989948717       31.7136485069  TIP3      1093            0.0000000000
     16747      1239  TIP3      H2             15.9856605781       -5.6121686817       32.1263217560  TIP3      1093            0.0000000000
     16748      1240  TIP3      OH2            16.4165032771        0.1005574546       23.8114350784  TIP3      1094            0.0000000000
     16749      1240  TIP3      H1             15.6611446091       -0.3091105168       23.3638221660  TIP3      1094            0.0000000000
     16750      1240  TIP3      H2             16.0951263038        0.2067377201       24.7312828757  TIP3      1094            0.0000000000
     16751      1241  TIP3      OH2            23.3909568334        0.0016353844       32.2313445667  TIP3      1095            0.0000000000
     16752      1241  TIP3      H1             24.1006809616        0.4717836106       31.7315898479  TIP3      1095            0.0000000000
     16753      1241  TIP3      H2             22.8313061416       -0.3683474932       31.5266390651  TIP3      1095            0.0000000000
     16754      1242  TIP3      OH2            19.3152822109       -7.0178917221       22.0784485686  TIP3      1096            0.0000000000
     16755      1242  TIP3      H1             18.4548297804       -6.8359427956       21.6422484963  TIP3      1096            0.0000000000
     16756      1242  TIP3      H2             19.7667122608       -6.1816407940       21.9243631027  TIP3      1096            0.0000000000
     16757      1243  TIP3      OH2            17.3701863079        0.5851144517       34.8019480414  TIP3      1097            0.0000000000
     16758      1243  TIP3      H1             17.2192173410        0.1309507839       35.6447925649  TIP3      1097            0.0000000000
     16759      1243  TIP3      H2             17.1853755522        1.5025051527       35.0755164883  TIP3      1097            0.0000000000
     16760      1244  TIP3      OH2            21.4245931690       -5.3056227481       23.6590797302  TIP3      1098            0.0000000000
     16761      1244  TIP3      H1             21.5873932301       -4.4394082186       24.0629128995  TIP3      1098            0.0000000000
     16762      1244  TIP3      H2             20.7684212077       -4.9866128174       23.0144360552  TIP3      1098            0.0000000000
     16763      1245  TIP3      OH2            11.2925856765       -0.2990612211       29.0855984596  TIP3      1099            0.0000000000
     16764      1245  TIP3      H1             11.8788613903       -0.4046213554       28.3073118893  TIP3      1099            0.0000000000
     16765      1245  TIP3      H2             11.5238098474       -1.0687861373       29.6289457762  TIP3      1099            0.0000000000
     16766      1246  TIP3      OH2            18.0033072953        2.0976290631       22.8417701497  TIP3      1100            0.0000000000
     16767      1246  TIP3      H1             17.4778312924        2.9143422395       22.9309293627  TIP3      1100            0.0000000000
     16768      1246  TIP3      H2             17.3703347916        1.4261994635       23.1684879431  TIP3      1100            0.0000000000
     16769      1247  TIP3      OH2             8.5628257945       -2.4121149102       34.8031696233  TIP3      1101            0.0000000000
     16770      1247  TIP3      H1              8.3083918190       -2.9613548281       35.5625808880  TIP3      1101            0.0000000000
     16771      1247  TIP3      H2              7.8925258089       -2.6427776527       34.1327531736  TIP3      1101            0.0000000000
     16772      1248  TIP3      OH2            15.3931290393       -2.4767514453       36.3243174366  TIP3      1102            0.0000000000
     16773      1248  TIP3      H1             14.9111690003       -3.2597593891       36.0262721515  TIP3      1102            0.0000000000
     16774      1248  TIP3      H2             16.2997085598       -2.8407345026       36.4063824026  TIP3      1102            0.0000000000
     16775      1249  TIP3      OH2            20.1704676326        2.7040873211       34.9185888751  TIP3      1103            0.0000000000
     16776      1249  TIP3      H1             19.4885943085        3.1940617825       34.4324195501  TIP3      1103            0.0000000000
     16777      1249  TIP3      H2             19.8823207922        2.9552473862       35.8060059190  TIP3      1103            0.0000000000
     16778      1250  TIP3      OH2            25.7062770046        0.6474594341       35.8206875030  TIP3      1104            0.0000000000
     16779      1250  TIP3      H1             24.8235303788        0.8867592627       35.4462530934  TIP3      1104            0.0000000000
     16780      1250  TIP3      H2             26.2298537218        0.5590884458       34.9879770189  TIP3      1104            0.0000000000
     16781      1251  TIP3      OH2            23.8017681038        3.7760165327       23.3727565391  TIP3      1105            0.0000000000
     16782      1251  TIP3      H1             23.2042814552        3.3739025941       24.0300427733  TIP3      1105            0.0000000000
     16783      1251  TIP3      H2             24.6482775107        3.4012408956       23.6449468963  TIP3      1105            0.0000000000
     16784      1252  TIP3      OH2            21.2760587133       -1.3402851656       30.6499010506  TIP3      1106            0.0000000000
     16785      1252  TIP3      H1             20.3849250629       -1.7219297518       30.6088590005  TIP3      1106            0.0000000000
     16786      1252  TIP3      H2             21.6929034973       -1.7988399245       29.8855206635  TIP3      1106            0.0000000000
     16787      1253  TIP3      OH2            13.1855521954        2.7609297620       27.1693327010  TIP3      1107            0.0000000000
     16788      1253  TIP3      H1             13.4585916375        3.6695944537       26.9033178674  TIP3      1107            0.0000000000
     16789      1253  TIP3      H2             12.2593354064        2.7534769434       26.8871447944  TIP3      1107            0.0000000000
     16790      1254  TIP3      OH2            15.3363820690        0.5236644248       26.4068736103  TIP3      1108            0.0000000000
     16791      1254  TIP3      H1             14.8223592840        1.3422735912       26.3035919287  TIP3      1108            0.0000000000
     16792      1254  TIP3      H2             14.8468602653        0.0546046447       27.0992863379  TIP3      1108            0.0000000000
     16793      1255  TIP3      OH2            16.9403160022        3.6605193270       32.2302798018  TIP3      1109            0.0000000000
     16794      1255  TIP3      H1             16.6278386538        4.5786853022       32.3921503824  TIP3      1109            0.0000000000
     16795      1255  TIP3      H2             16.8300437760        3.3359838226       33.1294865824  TIP3      1109            0.0000000000
     16796      1256  TIP3      OH2            14.1153696165        5.2091137454       26.1843444227  TIP3      1110            0.0000000000
     16797      1256  TIP3      H1             13.2889517129        5.7048663623       26.3586827531  TIP3      1110            0.0000000000
     16798      1256  TIP3      H2             14.1570710385        5.2662896470       25.2261087198  TIP3      1110            0.0000000000
     16799      1257  TIP3      OH2            18.6317877549        0.8658835362       32.3865912241  TIP3      1111            0.0000000000
     16800      1257  TIP3      H1             18.2746232836        0.6839017382       33.2957105216  TIP3      1111            0.0000000000
     16801      1257  TIP3      H2             19.3497899242        0.2216817674       32.3222968390  TIP3      1111            0.0000000000
     16802      1258  TIP3      OH2            21.8074655284        5.8464997137       34.9270204804  TIP3      1112            0.0000000000
     16803      1258  TIP3      H1             21.0383440301        5.4745337771       34.4550521849  TIP3      1112            0.0000000000
     16804      1258  TIP3      H2             22.2257652773        6.3715593379       34.2023567662  TIP3      1112            0.0000000000
     16805      1259  TIP3      OH2            25.7257836077        6.3832005957       22.0642400216  TIP3      1113            0.0000000000
     16806      1259  TIP3      H1             26.4384843242        7.0531872999       22.0969274043  TIP3      1113            0.0000000000
     16807      1259  TIP3      H2             24.9510456081        6.9367136296       22.2966270618  TIP3      1113            0.0000000000
     16808      1260  TIP3      OH2            10.0094764800       -7.4606305857       34.0151317457  TIP3      1114            0.0000000000
     16809      1260  TIP3      H1              9.6106092895       -6.9132833293       34.7188733804  TIP3      1114            0.0000000000
     16810      1260  TIP3      H2              9.6085887457       -8.3251972358       34.2196722614  TIP3      1114            0.0000000000
     16811      1261  TIP3      OH2            22.1090895963        0.5455942194       23.2059479658  TIP3      1115            0.0000000000
     16812      1261  TIP3      H1             22.0210611701        0.0136240458       24.0187038911  TIP3      1115            0.0000000000
     16813      1261  TIP3      H2             23.0884983273        0.5543164292       23.1370723082  TIP3      1115            0.0000000000
     16814      1262  TIP3      OH2             9.5564429710        4.1937262482       32.6150101166  TIP3      1116            0.0000000000
     16815      1262  TIP3      H1             10.2792548939        3.5607333573       32.7392174992  TIP3      1116            0.0000000000
     16816      1262  TIP3      H2              9.8693440721        4.9078633286       33.1898885064  TIP3      1116            0.0000000000
     16817      1263  TIP3      OH2            11.0772605826       -0.1552574286       22.8377228809  TIP3      1117            0.0000000000
     16818      1263  TIP3      H1             10.2133717669        0.1957531517       23.1525685407  TIP3      1117            0.0000000000
     16819      1263  TIP3      H2             11.4591835318        0.6720107768       22.4464966571  TIP3      1117            0.0000000000
     16820      1264  TIP3      OH2            19.1360283331       -8.0111648988       33.0452463730  TIP3      1118            0.0000000000
     16821      1264  TIP3      H1             19.5359051752       -7.3510165753       33.6391292062  TIP3      1118            0.0000000000
     16822      1264  TIP3      H2             18.5993711517       -8.5722461038       33.6494669641  TIP3      1118            0.0000000000
     16823      1265  TIP3      OH2            19.0648333285       -8.0904464125       24.5750672846  TIP3      1119            0.0000000000
     16824      1265  TIP3      H1             18.8618760993       -7.7155249848       23.6894103222  TIP3      1119            0.0000000000
     16825      1265  TIP3      H2             19.9868541929       -7.8009265159       24.6214513910  TIP3      1119            0.0000000000
     16826      1266  TIP3      OH2            17.1554606237        4.6869099404       23.2844429693  TIP3      1120            0.0000000000
     16827      1266  TIP3      H1             16.2250989528        4.5920904971       23.0016820440  TIP3      1120            0.0000000000
     16828      1266  TIP3      H2             17.5005714328        5.3423942278       22.6630390937  TIP3      1120            0.0000000000
     16829      1267  TIP3      OH2            16.2046624492       -6.1068283140       25.5943285411  TIP3      1121            0.0000000000
     16830      1267  TIP3      H1             17.0072988911       -5.6155571835       25.8238065308  TIP3      1121            0.0000000000
     16831      1267  TIP3      H2             16.0484469152       -6.6118636955       26.4270548160  TIP3      1121            0.0000000000
     16832      1268  TIP3      OH2            17.5680645395       -4.9003841741       34.1604234873  TIP3      1122            0.0000000000
     16833      1268  TIP3      H1             17.6046863820       -4.5640780099       35.0830470138  TIP3      1122            0.0000000000
     16834      1268  TIP3      H2             18.1589854971       -5.6653095465       34.2033340845  TIP3      1122            0.0000000000
     16835      1269  TIP3      OH2            17.1149232290       -9.4979131636       26.0955821084  TIP3      1123            0.0000000000
     16836      1269  TIP3      H1             16.6955284234       -8.8154640586       26.6658827812  TIP3      1123            0.0000000000
     16837      1269  TIP3      H2             17.8503565386       -8.9677626341       25.7129860493  TIP3      1123            0.0000000000
     16838      1270  TIP3      OH2            13.2959254285       -7.6226302445       22.5657149554  TIP3      1124            0.0000000000
     16839      1270  TIP3      H1             12.8085747282       -7.3098057633       23.3452711534  TIP3      1124            0.0000000000
     16840      1270  TIP3      H2             14.1527566569       -7.8734553139       22.9338515046  TIP3      1124            0.0000000000
     16841      1271  TIP3      OH2            23.1609530818       -7.2947181091       35.0691611042  TIP3      1125            0.0000000000
     16842      1271  TIP3      H1             22.8362231536       -7.3879212872       34.1425068179  TIP3      1125            0.0000000000
     16843      1271  TIP3      H2             24.0443666148       -6.9392534889       34.8679439150  TIP3      1125            0.0000000000
     16844      1272  TIP3      OH2            22.1683289007       -3.1042718430       28.8470479071  TIP3      1126            0.0000000000
     16845      1272  TIP3      H1             21.3321208937       -3.6076079564       28.7464702030  TIP3      1126            0.0000000000
     16846      1272  TIP3      H2             22.7173954691       -3.6862020594       29.4403561824  TIP3      1126            0.0000000000
     16847      1273  TIP3      OH2            22.8479257091        5.6561726324       30.5488443865  TIP3      1127            0.0000000000
     16848      1273  TIP3      H1             22.9697204862        6.3256404648       29.8460662912  TIP3      1127            0.0000000000
     16849      1273  TIP3      H2             23.7725769084        5.5267660509       30.8435215340  TIP3      1127            0.0000000000
     16850      1274  TIP3      OH2            10.4896433090      -10.0295528042       29.9598794782  TIP3      1128            0.0000000000
     16851      1274  TIP3      H1             10.4605622587      -10.3577743141       29.0330871382  TIP3      1128            0.0000000000
     16852      1274  TIP3      H2             10.2538084868      -10.8691433782       30.4218873871  TIP3      1128            0.0000000000
     16853      1275  TIP3      OH2             9.1991512840        4.3235101646       26.0659980647  TIP3      1129            0.0000000000
     16854      1275  TIP3      H1              8.3535573622        4.3647666998       26.5288919946  TIP3      1129            0.0000000000
     16855      1275  TIP3      H2              8.9550148553        4.6711724704       25.1761865660  TIP3      1129            0.0000000000
     16856      1276  TIP3      OH2             8.5221355543        6.6936970655       37.2330090238  TIP3      1130            0.0000000000
     16857      1276  TIP3      H1              9.2562718104        6.5238508407       37.8529647278  TIP3      1130            0.0000000000
     16858      1276  TIP3      H2              8.1443253759        5.8016521382       37.1438499905  TIP3      1130            0.0000000000
     16859      1277  TIP3      OH2            13.3801584146        4.8945502200       39.1129957061  TIP3      1131            0.0000000000
     16860      1277  TIP3      H1             14.3416671046        4.7902150467       39.0463559834  TIP3      1131            0.0000000000
     16861      1277  TIP3      H2             13.1142924004        4.4959790012       38.2643222057  TIP3      1131            0.0000000000
     16862      1278  TIP3      OH2            19.7343141598        3.9242926327       37.5353105254  TIP3      1132            0.0000000000
     16863      1278  TIP3      H1             19.6457674522        3.0196387492       37.9036563994  TIP3      1132            0.0000000000
     16864      1278  TIP3      H2             20.6348687856        4.1300308216       37.8715411648  TIP3      1132            0.0000000000
     16865      1279  TIP3      OH2             8.4394578315        0.0047265310       38.1660384293  TIP3      1133            0.0000000000
     16866      1279  TIP3      H1              8.0824661952       -0.8889024736       38.0486177124  TIP3      1133            0.0000000000
     16867      1279  TIP3      H2              8.0189376911        0.4833012900       37.4102326020  TIP3      1133            0.0000000000
     16868      1280  TIP3      OH2            15.3381219907        0.0755081308       37.0466743474  TIP3      1134            0.0000000000
     16869      1280  TIP3      H1             14.9244830158        0.6724396646       36.3733655571  TIP3      1134            0.0000000000
     16870      1280  TIP3      H2             15.3657092431       -0.8154203584       36.6113421911  TIP3      1134            0.0000000000
     16871      1281  TIP3      OH2            19.1234595111        1.5892463400       20.4338913296  TIP3      1135            0.0000000000
     16872      1281  TIP3      H1             18.8281531681        1.9873149903       21.2805776324  TIP3      1135            0.0000000000
     16873      1281  TIP3      H2             18.6360367610        0.7602245784       20.4042576074  TIP3      1135            0.0000000000
     16874      1282  TIP3      OH2            20.8664195647       -0.0211560415       34.9141550581  TIP3      1136            0.0000000000
     16875      1282  TIP3      H1             21.7376999977        0.4298172494       34.8344039869  TIP3      1136            0.0000000000
     16876      1282  TIP3      H2             20.2965836715        0.7764577817       34.9468552095  TIP3      1136            0.0000000000
     16877      1283  TIP3      OH2             9.5690469251       -2.7755891737       37.7455794984  TIP3      1137            0.0000000000
     16878      1283  TIP3      H1             10.2310474502       -3.4787653024       37.7550824879  TIP3      1137            0.0000000000
     16879      1283  TIP3      H2              9.9256497942       -2.1446151782       38.4013490192  TIP3      1137            0.0000000000
     16880      1284  TIP3      OH2            14.5178351489       -1.7511455547       22.4094700943  TIP3      1138            0.0000000000
     16881      1284  TIP3      H1             13.6953170717       -1.7076436213       22.9226743236  TIP3      1138            0.0000000000
     16882      1284  TIP3      H2             15.0935346882       -2.3989220508       22.8360293219  TIP3      1138            0.0000000000
     16883      1285  TIP3      OH2            13.1536715377       -3.6591092915       34.3380398587  TIP3      1139            0.0000000000
     16884      1285  TIP3      H1             12.5886121200       -2.9310544286       34.6543879754  TIP3      1139            0.0000000000
     16885      1285  TIP3      H2             13.8628134538       -3.1231548914       33.9279819455  TIP3      1139            0.0000000000
     16886      1286  TIP3      OH2            18.4805699833       -1.1807315505       38.4726960229  TIP3      1140            0.0000000000
     16887      1286  TIP3      H1             19.3944827165       -1.4393577004       38.2449598378  TIP3      1140            0.0000000000
     16888      1286  TIP3      H2             18.1806547222       -1.8765226197       39.0801945964  TIP3      1140            0.0000000000
     16889      1287  TIP3      OH2            14.2643159333       -5.7922201567       35.5404034389  TIP3      1141            0.0000000000
     16890      1287  TIP3      H1             14.3703978328       -6.5724324070       34.9633446907  TIP3      1141            0.0000000000
     16891      1287  TIP3      H2             14.0049207764       -5.0838009382       34.9062424930  TIP3      1141            0.0000000000
     16892      1288  TIP3      OH2            14.7170643599       -7.9023266625       33.6141854103  TIP3      1142            0.0000000000
     16893      1288  TIP3      H1             15.1990381663       -7.3470241825       32.9594916108  TIP3      1142            0.0000000000
     16894      1288  TIP3      H2             13.8117641044       -7.9281871045       33.2217514436  TIP3      1142            0.0000000000
     16895      1289  TIP3      OH2            15.4513823010       -2.0844038566       33.3637017837  TIP3      1143            0.0000000000
     16896      1289  TIP3      H1             16.3230884272       -1.7199380568       33.1607691371  TIP3      1143            0.0000000000
     16897      1289  TIP3      H2             14.8768733439       -1.3651468457       33.0159913389  TIP3      1143            0.0000000000
     16898      1290  TIP3      OH2            19.4315005720       -4.4516092258       38.7178245599  TIP3      1144            0.0000000000
     16899      1290  TIP3      H1             19.6735315751       -5.3881944832       38.9099285331  TIP3      1144            0.0000000000
     16900      1290  TIP3      H2             20.3128850863       -4.0775496565       38.5766442062  TIP3      1144            0.0000000000
     16901      1291  TIP3      OH2            21.1767080061       -1.2828124316       37.3129247132  TIP3      1145            0.0000000000
     16902      1291  TIP3      H1             20.8592861372       -0.8238571332       36.5000696349  TIP3      1145            0.0000000000
     16903      1291  TIP3      H2             22.1135837067       -1.3956062428       37.0813695660  TIP3      1145            0.0000000000
     16904      1292  TIP3      OH2            12.5231212674       -5.1817677541       37.7190919929  TIP3      1146            0.0000000000
     16905      1292  TIP3      H1             11.7375634290       -5.7042963349       37.4602627969  TIP3      1146            0.0000000000
     16906      1292  TIP3      H2             13.0673213696       -5.2320116438       36.9108561302  TIP3      1146            0.0000000000
     16907      1293  TIP3      OH2            15.3677781642      -10.4857416237       33.3923625015  TIP3      1147            0.0000000000
     16908      1293  TIP3      H1             15.0778747738       -9.5493448110       33.5068253702  TIP3      1147            0.0000000000
     16909      1293  TIP3      H2             14.5218250594      -10.9525136011       33.3732415384  TIP3      1147            0.0000000000
     16910      1294  TIP3      OH2            16.3113915881       -6.2793686879       37.5696480442  TIP3      1148            0.0000000000
     16911      1294  TIP3      H1             15.8091248088       -6.1741515652       38.3974120233  TIP3      1148            0.0000000000
     16912      1294  TIP3      H2             15.5804001740       -6.3507056981       36.9206761089  TIP3      1148            0.0000000000
     16913      1295  TIP3      OH2            18.8969000221       -6.7793349531       36.4559977052  TIP3      1149            0.0000000000
     16914      1295  TIP3      H1             17.9847372216       -6.8127175598       36.7968420380  TIP3      1149            0.0000000000
     16915      1295  TIP3      H2             19.3425091621       -7.4455088864       37.0353682199  TIP3      1149            0.0000000000
     16916      1296  TIP3      OH2            20.1791565169       -8.5246742507       38.0045585828  TIP3      1150            0.0000000000
     16917      1296  TIP3      H1             20.5371699825       -9.3799003991       38.3079258310  TIP3      1150            0.0000000000
     16918      1296  TIP3      H2             20.2223402279       -7.9884051163       38.8343025578  TIP3      1150            0.0000000000
     16919      1297  TIP3      OH2            10.4533995356       -7.1368100210       37.9766792670  TIP3      1151            0.0000000000
     16920      1297  TIP3      H1             10.8121885378       -7.8677712125       37.4468918262  TIP3      1151            0.0000000000
     16921      1297  TIP3      H2             10.2984670164       -7.5596423627       38.8520249921  TIP3      1151            0.0000000000
     16922      1298  TIP3      OH2            14.9274659425      -10.7879234305       36.1951922053  TIP3      1152            0.0000000000
     16923      1298  TIP3      H1             15.6741752571      -11.4041636714       36.3315350356  TIP3      1152            0.0000000000
     16924      1298  TIP3      H2             15.0597595671      -10.5985551370       35.2484316989  TIP3      1152            0.0000000000
     16925      1299  TIP3      OH2            14.8925841222      -10.0694078004       39.1749441959  TIP3      1153            0.0000000000
     16926      1299  TIP3      H1             14.9520776018      -10.5333008910       38.3171248307  TIP3      1153            0.0000000000
     16927      1299  TIP3      H2             14.9423082787       -9.1441389629       38.8755188129  TIP3      1153            0.0000000000
     16928      1300  TIP3      OH2            15.6025404846        7.5299755420       22.2532682961  TIP3      1154            0.0000000000
     16929      1300  TIP3      H1             16.3797018175        7.8072094014       21.7347866172  TIP3      1154            0.0000000000
     16930      1300  TIP3      H2             14.8892572700        8.1076337820       21.9606724024  TIP3      1154            0.0000000000
     16931      1301  TIP3      OH2             8.4130128957        2.0895215498       21.0365531556  TIP3      1155            0.0000000000
     16932      1301  TIP3      H1              9.3293978394        2.4081920857       21.1472227653  TIP3      1155            0.0000000000
     16933      1301  TIP3      H2              8.4797379608        1.5549771021       20.2234187074  TIP3      1155            0.0000000000
     16934      1302  TIP3      OH2             7.4115201223        7.1457084818       26.4589412003  TIP3      1156            0.0000000000
     16935      1302  TIP3      H1              6.7499118917        6.6191413851       25.9493602151  TIP3      1156            0.0000000000
     16936      1302  TIP3      H2              7.5818589098        6.5189423143       27.1967595032  TIP3      1156            0.0000000000
     16937      1303  TIP3      OH2             8.0265953681        5.4144999019       28.4412279275  TIP3      1157            0.0000000000
     16938      1303  TIP3      H1              7.7193686634        4.6717873864       28.9989164404  TIP3      1157            0.0000000000
     16939      1303  TIP3      H2              8.7613001842        5.7705413291       28.9871549168  TIP3      1157            0.0000000000
     16940      1304  TIP3      OH2            25.7407808298        6.2113697498       31.5429676069  TIP3      1158            0.0000000000
     16941      1304  TIP3      H1             25.8410105435        5.8700124739       32.4633258401  TIP3      1158            0.0000000000
     16942      1304  TIP3      H2             26.0974952474        7.1046270287       31.6619247606  TIP3      1158            0.0000000000
     16943      1305  TIP3      OH2            25.6041185159        5.6198121834       34.1228439946  TIP3      1159            0.0000000000
     16944      1305  TIP3      H1             25.0392459707        4.8592888798       33.8452495020  TIP3      1159            0.0000000000
     16945      1305  TIP3      H2             26.0362856585        5.2665421236       34.9311008782  TIP3      1159            0.0000000000
     16946      1306  TIP3      OH2            23.8627850866        1.2679789929       38.8097683673  TIP3      1160            0.0000000000
     16947      1306  TIP3      H1             23.0180568149        1.5126392160       39.2455442621  TIP3      1160            0.0000000000
     16948      1306  TIP3      H2             24.3939869910        2.0359700386       39.1177621113  TIP3      1160            0.0000000000
     16949      1307  TIP3      OH2            24.6371008588        0.2033896919       24.0099638545  TIP3      1161            0.0000000000
     16950      1307  TIP3      H1             25.5529367711        0.5300657190       24.0735705732  TIP3      1161            0.0000000000
     16951      1307  TIP3      H2             24.7043816944       -0.5204328840       24.6713405647  TIP3      1161            0.0000000000
     16952      1308  TIP3      OH2            25.5607488276       -1.6675914604       25.6577791771  TIP3      1162            0.0000000000
     16953      1308  TIP3      H1             24.9024586731       -2.1275040358       26.2139463685  TIP3      1162            0.0000000000
     16954      1308  TIP3      H2             26.3142042714       -1.5248393043       26.2665929802  TIP3      1162            0.0000000000
     16955      1309  TIP3      OH2            25.4326576691        0.6651359995       30.7450375401  TIP3      1163            0.0000000000
     16956      1309  TIP3      H1             26.1131652524        0.0507151123       30.4120285207  TIP3      1163            0.0000000000
     16957      1309  TIP3      H2             25.8160795671        1.5464124718       30.5370730350  TIP3      1163            0.0000000000
     16958      1310  TIP3      OH2            23.8122086490        3.5376792361       33.1487402435  TIP3      1164            0.0000000000
     16959      1310  TIP3      H1             22.9965076813        3.8474853831       33.5705240280  TIP3      1164            0.0000000000
     16960      1310  TIP3      H2             23.4769914338        3.1734723747       32.2919882287  TIP3      1164            0.0000000000
     16961      1311  TIP3      OH2            23.6903736013       -3.4249388070       26.7093184615  TIP3      1165            0.0000000000
     16962      1311  TIP3      H1             23.7040299572       -4.3939779353       26.7602634392  TIP3      1165            0.0000000000
     16963      1311  TIP3      H2             23.1599011207       -3.1969002844       27.5073919527  TIP3      1165            0.0000000000
     16964      1312  TIP3      OH2             8.2242317255       -1.3963253687       30.4716855200  TIP3      1166            0.0000000000
     16965      1312  TIP3      H1              8.3221625334       -1.5519506252       29.5140259103  TIP3      1166            0.0000000000
     16966      1312  TIP3      H2              9.1507229059       -1.5724045280       30.7793060933  TIP3      1166            0.0000000000
     16967      1313  TIP3      OH2            24.1597547016       -1.5690333851       36.2682921699  TIP3      1167            0.0000000000
     16968      1313  TIP3      H1             24.6826817852       -2.0501103034       35.5949110023  TIP3      1167            0.0000000000
     16969      1313  TIP3      H2             24.6567269384       -0.7246254218       36.2317094531  TIP3      1167            0.0000000000
     16970      1314  TIP3      OH2            25.3035224823       -3.9870743757       37.6063724835  TIP3      1168            0.0000000000
     16971      1314  TIP3      H1             24.5525725247       -3.8248412301       36.9960963142  TIP3      1168            0.0000000000
     16972      1314  TIP3      H2             25.9210641801       -4.4681356502       37.0292423133  TIP3      1168            0.0000000000
     16973      1315  TIP3      OH2            23.3468474361       -7.2625695892       19.9381121619  TIP3      1169            0.0000000000
     16974      1315  TIP3      H1             22.7175966414       -7.2228389453       20.6670743068  TIP3      1169            0.0000000000
     16975      1315  TIP3      H2             22.7774119856       -7.5524515968       19.2049714195  TIP3      1169            0.0000000000
     16976      1316  TIP3      OH2            23.5900893653       -5.9206064301       25.4974209947  TIP3      1170            0.0000000000
     16977      1316  TIP3      H1             22.7659820988       -6.0562387607       24.9865460211  TIP3      1170            0.0000000000
     16978      1316  TIP3      H2             23.9467058471       -5.1426283734       25.0457810248  TIP3      1170            0.0000000000
     16979      1317  TIP3      OH2            23.4734586331       -4.9609307719       30.2319975939  TIP3      1171            0.0000000000
     16980      1317  TIP3      H1             24.4604476614       -4.9093667930       30.1293285616  TIP3      1171            0.0000000000
     16981      1317  TIP3      H2             23.4533679518       -4.8641851561       31.2052532643  TIP3      1171            0.0000000000
     16982      1318  TIP3      OH2            23.6585644139       -4.6105207716       32.9830531332  TIP3      1172            0.0000000000
     16983      1318  TIP3      H1             22.7359584949       -4.3607471064       33.1404356863  TIP3      1172            0.0000000000
     16984      1318  TIP3      H2             24.1085031963       -3.7314814670       32.8917764137  TIP3      1172            0.0000000000
     16985      1319  TIP3      OH2             8.2946575565       -5.9921415429       36.9718308387  TIP3      1173            0.0000000000
     16986      1319  TIP3      H1              9.0352052230       -6.3388126990       37.5149126836  TIP3      1173            0.0000000000
     16987      1319  TIP3      H2              7.6219028331       -6.7065388730       37.0477081883  TIP3      1173            0.0000000000
     16988      1320  TIP3      OH2            25.9653842393      -10.6301055730       38.6489464333  TIP3      1174            0.0000000000
     16989      1320  TIP3      H1             26.4286775170      -11.4511831765       38.3563008258  TIP3      1174            0.0000000000
     16990      1320  TIP3      H2             26.3721805446       -9.9828212820       38.0466960685  TIP3      1174            0.0000000000
     16991      1321  TIP3      OH2            22.8920320182       -9.3727537376       25.3337628646  TIP3      1175            0.0000000000
     16992      1321  TIP3      H1             23.5018340538       -9.9845452281       24.8979618329  TIP3      1175            0.0000000000
     16993      1321  TIP3      H2             22.2106767807      -10.0024602172       25.6639209933  TIP3      1175            0.0000000000
     16994      1322  TIP3      OH2             9.2378824596       -7.7022235455       30.4110775696  TIP3      1176            0.0000000000
     16995      1322  TIP3      H1              9.5757458417       -8.6203313522       30.3416215160  TIP3      1176            0.0000000000
     16996      1322  TIP3      H2             10.0502320006       -7.1738383727       30.3774567045  TIP3      1176            0.0000000000
     16997      1323  TIP3      OH2             7.6174099170       -4.6396052387       30.5598987154  TIP3      1177            0.0000000000
     16998      1323  TIP3      H1              8.4883752648       -4.6340803815       30.1234177693  TIP3      1177            0.0000000000
     16999      1323  TIP3      H2              7.6176921017       -3.7316105867       30.9132297779  TIP3      1177            0.0000000000
     17000      1324  TIP3      OH2            25.8087250407       -8.4011165880       36.8381899899  TIP3      1178            0.0000000000
     17001      1324  TIP3      H1             24.9838835952       -8.3197821937       37.3661461973  TIP3      1178            0.0000000000
     17002      1324  TIP3      H2             25.4837371549       -8.8207613294       36.0220791181  TIP3      1178            0.0000000000
     17003      1325  TIP3      OH2             7.9566881131       -7.7601387701       25.2403350013  TIP3      1179            0.0000000000
     17004      1325  TIP3      H1              6.9926320399       -7.6196729524       25.1308846899  TIP3      1179            0.0000000000
     17005      1325  TIP3      H2              8.1283566371       -8.3668818275       24.4845429764  TIP3      1179            0.0000000000
     17006      1326  TIP3      OH2            22.5448749983        6.5191379725       27.0381154713  TIP3      1180            0.0000000000
     17007      1326  TIP3      H1             23.2894581197        6.5639642485       26.4117602211  TIP3      1180            0.0000000000
     17008      1326  TIP3      H2             22.5334069872        7.3840280143       27.4706998730  TIP3      1180            0.0000000000
     17009      1327  TIP3      OH2             7.7857490243       -9.9569219341       33.3338867183  TIP3      1181            0.0000000000
     17010      1327  TIP3      H1              7.5361916224      -10.2381880721       34.2368140900  TIP3      1181            0.0000000000
     17011      1327  TIP3      H2              7.4126313614      -10.6949261636       32.8291435775  TIP3      1181            0.0000000000
     17012      1328  TIP3      OH2            10.1219518648        3.1740902453       37.2612432609  TIP3      1182            0.0000000000
     17013      1328  TIP3      H1              9.3842780990        3.6525684642       36.8611167404  TIP3      1182            0.0000000000
     17014      1328  TIP3      H2              9.6541074360        2.6235464561       37.9009496648  TIP3      1182            0.0000000000
     17015      1329  TIP3      OH2            12.5749139829        4.3906967569       33.7330724932  TIP3      1183            0.0000000000
     17016      1329  TIP3      H1             12.5688870941        5.2881183358       33.3201357819  TIP3      1183            0.0000000000
     17017      1329  TIP3      H2             13.5470290087        4.4080020143       33.9153944118  TIP3      1183            0.0000000000
     17018      1330  TIP3      OH2            17.1397734897        5.8830732692       36.7693529158  TIP3      1184            0.0000000000
     17019      1330  TIP3      H1             17.3841882427        5.7587660579       37.6987779881  TIP3      1184            0.0000000000
     17020      1330  TIP3      H2             18.0099134279        6.1170426502       36.3700220321  TIP3      1184            0.0000000000
     17021      1331  TIP3      OH2            19.4819698265        7.0000655898       36.0531295475  TIP3      1185            0.0000000000
     17022      1331  TIP3      H1             20.3456927081        6.7280176597       35.7079116470  TIP3      1185            0.0000000000
     17023      1331  TIP3      H2             19.7199021226        7.4609461726       36.8698495398  TIP3      1185            0.0000000000
     17024      1332  TIP3      OH2            24.8691536451      -10.3769241058       34.8565740051  TIP3      1186            0.0000000000
     17025      1332  TIP3      H1             23.9921933998      -10.0581571342       34.6128341249  TIP3      1186            0.0000000000
     17026      1332  TIP3      H2             24.8446678400      -11.3171468054       34.5810913759  TIP3      1186            0.0000000000
     17027      1333  TIP3      OH2            10.2897687881        7.8984439386       33.6263258015  TIP3      1187            0.0000000000
     17028      1333  TIP3      H1              9.4743724406        8.4058764582       33.3993896623  TIP3      1187            0.0000000000
     17029      1333  TIP3      H2             10.2990101025        8.0415814159       34.5919983169  TIP3      1187            0.0000000000
     17030      1334  TIP3      OH2            12.3842206150        6.7003190018       32.3665883780  TIP3      1188            0.0000000000
     17031      1334  TIP3      H1             11.6566431301        7.2704100561       32.6991067331  TIP3      1188            0.0000000000
     17032      1334  TIP3      H2             12.8765646966        7.3270095557       31.7998400644  TIP3      1188            0.0000000000
     17033      1335  TIP3      OH2            17.7018370903        6.7597477012       31.2875150174  TIP3      1189            0.0000000000
     17034      1335  TIP3      H1             17.2788967457        7.1776502872       30.5248389138  TIP3      1189            0.0000000000
     17035      1335  TIP3      H2             17.8210290318        7.5430119936       31.8621724636  TIP3      1189            0.0000000000
     17036      1336  TIP3      OH2            19.6737681498        5.6060531316       33.2068007512  TIP3      1190            0.0000000000
     17037      1336  TIP3      H1             18.8936993115        5.8531477092       32.6668465505  TIP3      1190            0.0000000000
     17038      1336  TIP3      H2             20.2917688453        6.2908367401       32.9104844970  TIP3      1190            0.0000000000
     17039      1337  TIP3      OH2            22.5162384195        7.1454480310       32.7734687515  TIP3      1191            0.0000000000
     17040      1337  TIP3      H1             22.6130481633        8.0724982392       32.4768283686  TIP3      1191            0.0000000000
     17041      1337  TIP3      H2             22.6017830945        6.6619922271       31.9188423255  TIP3      1191            0.0000000000
     17042      1338  TIP3      OH2             9.8426113716        5.9243631641       30.3832222754  TIP3      1192            0.0000000000
     17043      1338  TIP3      H1              9.5706650490        5.3579182737       31.1304969269  TIP3      1192            0.0000000000
     17044      1338  TIP3      H2             10.7500706526        5.5886952930       30.2125521925  TIP3      1192            0.0000000000
     17045      1339  TIP3      OH2            12.1845648616        4.8906040836       29.0499408704  TIP3      1193            0.0000000000
     17046      1339  TIP3      H1             12.2328707606        3.9199006821       29.2260307890  TIP3      1193            0.0000000000
     17047      1339  TIP3      H2             12.9124862258        5.1731233472       29.6507812946  TIP3      1193            0.0000000000
     17048      1340  TIP3      OH2            14.4347507165        5.1792173941       30.4515925462  TIP3      1194            0.0000000000
     17049      1340  TIP3      H1             15.2544445226        4.6658598325       30.3719417005  TIP3      1194            0.0000000000
     17050      1340  TIP3      H2             14.4274517828        5.4043901452       31.4001793680  TIP3      1194            0.0000000000
     17051      1341  TIP3      OH2            18.5274398419       -9.2609303249       29.1099058738  TIP3      1195            0.0000000000
     17052      1341  TIP3      H1             17.8919078174       -9.1078485493       29.8150286861  TIP3      1195            0.0000000000
     17053      1341  TIP3      H2             18.0462012900       -9.9068253498       28.5680511067  TIP3      1195            0.0000000000
     17054      1342  TIP3      OH2            23.2605732422      -11.0333064199       29.1429889401  TIP3      1196            0.0000000000
     17055      1342  TIP3      H1             23.8115653054      -10.4731299294       28.5642518427  TIP3      1196            0.0000000000
     17056      1342  TIP3      H2             22.3556146964      -10.7640178659       28.8721442423  TIP3      1196            0.0000000000
     17057      1343  TIP3      OH2            24.7610680856       -9.8016860789       27.2361238763  TIP3      1197            0.0000000000
     17058      1343  TIP3      H1             25.3677026858      -10.4261965087       26.7828084823  TIP3      1197            0.0000000000
     17059      1343  TIP3      H2             25.4155459649       -9.1796732089       27.6295948403  TIP3      1197            0.0000000000
     17060      1344  TIP3      OH2            10.1516348490      -10.4900979769       27.2670607785  TIP3      1198            0.0000000000
     17061      1344  TIP3      H1              9.2700143811      -10.6409557991       26.8838867895  TIP3      1198            0.0000000000
     17062      1344  TIP3      H2             10.5609639527      -11.3771040664       27.1269880179  TIP3      1198            0.0000000000
     17063      1345  TIP3      OH2             9.1676027425      -10.2482088901       22.9485631319  TIP3      1199            0.0000000000
     17064      1345  TIP3      H1              9.0718991413      -10.0655586360       22.0052181760  TIP3      1199            0.0000000000
     17065      1345  TIP3      H2              8.3185054386      -10.6695417260       23.1512051226  TIP3      1199            0.0000000000
     17066      1346  TIP3      OH2            14.4384165316      -10.5856292438       26.9745491810  TIP3      1200            0.0000000000
     17067      1346  TIP3      H1             15.4033325279      -10.6444487884       26.9009619113  TIP3      1200            0.0000000000
     17068      1346  TIP3      H2             14.3531373114      -10.5289004318       27.9424715482  TIP3      1200            0.0000000000
     17069      1347  TIP3      OH2            20.9034914754      -10.5646430604       28.0307435177  TIP3      1201            0.0000000000
     17070      1347  TIP3      H1             20.2416425153      -10.0423128944       27.5591923546  TIP3      1201            0.0000000000
     17071      1347  TIP3      H2             20.2860698436      -11.1526186175       28.5385203761  TIP3      1201            0.0000000000
     17072      1348  TIP3      OH2             8.8610327179        5.4537206020       23.6164387744  TIP3      1202            0.0000000000
     17073      1348  TIP3      H1              7.9854896977        5.5183659750       23.1938374793  TIP3      1202            0.0000000000
     17074      1348  TIP3      H2              9.1741229392        6.3610020766       23.4895504058  TIP3      1202            0.0000000000
     17075      1349  TIP3      OH2            16.1681503431       -8.0903076305       23.6531046643  TIP3      1203            0.0000000000
     17076      1349  TIP3      H1             16.3123891200       -8.8653313332       24.2238790634  TIP3      1203            0.0000000000
     17077      1349  TIP3      H2             16.2618492708       -7.3545129630       24.3022222268  TIP3      1203            0.0000000000
     17078      1350  TIP3      OH2            24.1025771156        6.1352417195       24.6989094421  TIP3      1204            0.0000000000
     17079      1350  TIP3      H1             23.8224738602        5.4076782777       24.1018852419  TIP3      1204            0.0000000000
     17080      1350  TIP3      H2             23.9625855396        6.9090553865       24.1188150527  TIP3      1204            0.0000000000
     17081      1351  TIP3      OH2            10.0344960635      -10.0327603305       35.9451170181  TIP3      1205            0.0000000000
     17082      1351  TIP3      H1              9.4358941024      -10.6759607322       36.3729460006  TIP3      1205            0.0000000000
     17083      1351  TIP3      H2             10.8301980101      -10.1318934989       36.5041161902  TIP3      1205            0.0000000000
     17084      1352  TIP3      OH2            11.7692127977      -10.4215463419       37.9743162099  TIP3      1206            0.0000000000
     17085      1352  TIP3      H1             12.5984759234      -10.5704824115       37.4791297223  TIP3      1206            0.0000000000
     17086      1352  TIP3      H2             11.6854957760      -11.2630442903       38.4640341518  TIP3      1206            0.0000000000
     17087      1353  TIP3      OH2            20.3512470793      -11.1237639006       38.7381128953  TIP3      1207            0.0000000000
     17088      1353  TIP3      H1             20.5026634826      -11.5167035638       39.6191682801  TIP3      1207            0.0000000000
     17089      1353  TIP3      H2             21.2042815998      -11.3515923595       38.3152854487  TIP3      1207            0.0000000000
     17090      1354  TIP3      OH2            23.5778751444        4.4162408619       36.4001013904  TIP3      1208            0.0000000000
     17091      1354  TIP3      H1             22.7148842057        4.7156873429       36.0379063634  TIP3      1208            0.0000000000
     17092      1354  TIP3      H2             23.9325912723        5.2477200778       36.7755011294  TIP3      1208            0.0000000000
     17093      1355  TIP3      OH2            29.0714062566       -1.7486176258       33.0608017545  TIP3      1209            0.0000000000
     17094      1355  TIP3      H1             28.5920319853       -2.6034327388       32.9473169912  TIP3      1209            0.0000000000
     17095      1355  TIP3      H2             29.6687616596       -1.7444608356       32.2749031930  TIP3      1209            0.0000000000
     17096      1356  TIP3      OH2            26.9675483603       -4.6492184160       25.7570778813  TIP3      1210            0.0000000000
     17097      1356  TIP3      H1             27.1473626170       -3.6854626501       25.7798285827  TIP3      1210            0.0000000000
     17098      1356  TIP3      H2             26.1821826455       -4.6846678149       26.3268242897  TIP3      1210            0.0000000000
     17099      1357  TIP3      OH2            27.8801668632       -2.1673827377       27.2949024695  TIP3      1211            0.0000000000
     17100      1357  TIP3      H1             27.8764914428       -2.9174556981       27.9244403347  TIP3      1211            0.0000000000
     17101      1357  TIP3      H2             28.7984310927       -1.8574749453       27.3439248903  TIP3      1211            0.0000000000
     17102      1358  TIP3      OH2            28.3315451096       -4.3237331138       29.1049195529  TIP3      1212            0.0000000000
     17103      1358  TIP3      H1             28.9240573397       -4.6282341779       29.8288750998  TIP3      1212            0.0000000000
     17104      1358  TIP3      H2             28.7425884589       -4.8118930981       28.3582679994  TIP3      1212            0.0000000000
     17105      1359  TIP3      OH2            27.2879382626        1.4483648605       25.0950413584  TIP3      1213            0.0000000000
     17106      1359  TIP3      H1             27.4396089166        1.6906168435       24.1715479984  TIP3      1213            0.0000000000
     17107      1359  TIP3      H2             27.4925329473        2.2809985622       25.5706578023  TIP3      1213            0.0000000000
     17108      1360  TIP3      OH2            27.0702348960        0.1710400089       33.6665603759  TIP3      1214            0.0000000000
     17109      1360  TIP3      H1             26.9718788530       -0.1298029656       32.7497225270  TIP3      1214            0.0000000000
     17110      1360  TIP3      H2             27.3580679176       -0.6636981809       34.1013882447  TIP3      1214            0.0000000000
     17111      1361  TIP3      OH2            26.7750044435        3.1210217068       30.5957213738  TIP3      1215            0.0000000000
     17112      1361  TIP3      H1             27.3653562491        2.9489091342       31.3532021590  TIP3      1215            0.0000000000
     17113      1361  TIP3      H2             26.7174178098        4.0784525299       30.6933156114  TIP3      1215            0.0000000000
     17114      1362  TIP3      OH2            29.1033504133        1.9063066653       34.0264571394  TIP3      1216            0.0000000000
     17115      1362  TIP3      H1             29.4446225215        1.5611571241       34.8754096024  TIP3      1216            0.0000000000
     17116      1362  TIP3      H2             28.2845708036        1.3823308610       33.9066922079  TIP3      1216            0.0000000000
     17117      1363  TIP3      OH2            30.2868627113       -4.9353953301       34.4654051065  TIP3      1217            0.0000000000
     17118      1363  TIP3      H1             29.3600058573       -4.6604725391       34.3297723518  TIP3      1217            0.0000000000
     17119      1363  TIP3      H2             30.4265175267       -5.4284760663       33.6435560020  TIP3      1217            0.0000000000
     17120      1364  TIP3      OH2            26.0608349071       -7.5120854852       27.6555106571  TIP3      1218            0.0000000000
     17121      1364  TIP3      H1             26.6765828617       -7.4231609454       28.4228761311  TIP3      1218            0.0000000000
     17122      1364  TIP3      H2             26.6908940936       -7.5405177625       26.9166540294  TIP3      1218            0.0000000000
     17123      1365  TIP3      OH2            27.4158737945       -6.5937775485       23.2720089778  TIP3      1219            0.0000000000
     17124      1365  TIP3      H1             28.0956178012       -6.1946520237       22.7081974598  TIP3      1219            0.0000000000
     17125      1365  TIP3      H2             26.9639683648       -5.8016772121       23.6027063345  TIP3      1219            0.0000000000
     17126      1366  TIP3      OH2            29.3386381420       -5.4584449100       26.8010443171  TIP3      1220            0.0000000000
     17127      1366  TIP3      H1             28.5517457302       -5.4924709021       26.2223146311  TIP3      1220            0.0000000000
     17128      1366  TIP3      H2             29.6866623031       -6.3895784753       26.8406888037  TIP3      1220            0.0000000000
     17129      1367  TIP3      OH2            29.6388442593        0.6255260227       36.4625494227  TIP3      1221            0.0000000000
     17130      1367  TIP3      H1             30.3428772397        0.2447834186       37.0318798170  TIP3      1221            0.0000000000
     17131      1367  TIP3      H2             28.9030544420        0.7249237823       37.0961718666  TIP3      1221            0.0000000000
     17132      1368  TIP3      OH2            26.6030632325       -2.3341783326       34.9770126686  TIP3      1222            0.0000000000
     17133      1368  TIP3      H1             27.1293106910       -2.7620496072       35.6723354905  TIP3      1222            0.0000000000
     17134      1368  TIP3      H2             26.8024836925       -2.9419784390       34.2309302690  TIP3      1222            0.0000000000
     17135      1369  TIP3      OH2            28.7131063829       -7.6563497919       34.0860193434  TIP3      1223            0.0000000000
     17136      1369  TIP3      H1             28.3729269112       -6.7396585546       34.0297790413  TIP3      1223            0.0000000000
     17137      1369  TIP3      H2             27.9156210797       -8.1876724459       34.2474479356  TIP3      1223            0.0000000000
     17138      1370  TIP3      OH2            28.3117761641        4.1993623004       32.5573075126  TIP3      1224            0.0000000000
     17139      1370  TIP3      H1             28.9480399282        3.5117050081       32.8402678532  TIP3      1224            0.0000000000
     17140      1370  TIP3      H2             28.5796463247        4.9338783969       33.1494115310  TIP3      1224            0.0000000000
     17141      1371  TIP3      OH2            29.9594742579       -0.4014966002       22.2953707687  TIP3      1225            0.0000000000
     17142      1371  TIP3      H1             29.2286473533       -0.1896302088       21.6853262120  TIP3      1225            0.0000000000
     17143      1371  TIP3      H2             30.1237620131        0.4497567052       22.7352369099  TIP3      1225            0.0000000000
     17144      1372  TIP3      OH2            29.1958575071      -10.1450577264       30.2834571108  TIP3      1226            0.0000000000
     17145      1372  TIP3      H1             29.4173877756      -10.0424494110       29.3365234333  TIP3      1226            0.0000000000
     17146      1372  TIP3      H2             28.9425017904      -11.0880872887       30.3184259023  TIP3      1226            0.0000000000
     17147      1373  TIP3      OH2            27.9740502670        4.0063065239       26.3404463337  TIP3      1227            0.0000000000
     17148      1373  TIP3      H1             27.2999426021        4.4221984138       25.7672088522  TIP3      1227            0.0000000000
     17149      1373  TIP3      H2             28.7055553069        4.0062317944       25.7041898030  TIP3      1227            0.0000000000
     17150      1374  TIP3      OH2            27.7133746696        6.1775568729       36.9149698220  TIP3      1228            0.0000000000
     17151      1374  TIP3      H1             28.1567645411        6.2686117315       37.7804062816  TIP3      1228            0.0000000000
     17152      1374  TIP3      H2             26.7708545731        6.1334674999       37.1997219897  TIP3      1228            0.0000000000
     17153      1375  TIP3      OH2            27.2165314934       -0.2530276119       37.8505398342  TIP3      1229            0.0000000000
     17154      1375  TIP3      H1             27.4426254664       -1.1205339720       37.4625205770  TIP3      1229            0.0000000000
     17155      1375  TIP3      H2             26.6811989043        0.1361526600       37.1225098077  TIP3      1229            0.0000000000
     17156      1376  TIP3      OH2            28.2831575995       -2.9258609628       37.4453241390  TIP3      1230            0.0000000000
     17157      1376  TIP3      H1             28.2844663550       -3.8639323746       37.6427017812  TIP3      1230            0.0000000000
     17158      1376  TIP3      H2             28.6160412955       -2.5435830171       38.2836339822  TIP3      1230            0.0000000000
     17159      1377  TIP3      OH2            29.0351534320       -7.1100157825       37.6807392752  TIP3      1231            0.0000000000
     17160      1377  TIP3      H1             28.8286103741       -7.9228279227       37.1863409293  TIP3      1231            0.0000000000
     17161      1377  TIP3      H2             28.8897338789       -7.4246333165       38.5884196232  TIP3      1231            0.0000000000
     17162      1378  TIP3      OH2            27.8824320634        1.6746778389       21.3080356073  TIP3      1232            0.0000000000
     17163      1378  TIP3      H1             28.6695286084        2.2258189007       21.1133171841  TIP3      1232            0.0000000000
     17164      1378  TIP3      H2             27.7659513638        1.2240534711       20.4370590813  TIP3      1232            0.0000000000
     17165      1379  TIP3      OH2            26.3218970325        7.3025663086       26.0871798936  TIP3      1233            0.0000000000
     17166      1379  TIP3      H1             25.5718784611        6.7754628865       25.7334483093  TIP3      1233            0.0000000000
     17167      1379  TIP3      H2             26.5676856890        6.7663824019       26.8800243197  TIP3      1233            0.0000000000
     17168      1380  TIP3      OH2            26.6142806374        5.8299677444       28.2130095265  TIP3      1234            0.0000000000
     17169      1380  TIP3      H1             26.8544997582        4.8938223508       28.0712505835  TIP3      1234            0.0000000000
     17170      1380  TIP3      H2             26.6460097375        5.9056332888       29.1840896217  TIP3      1234            0.0000000000
     17171      1381  TIP3      OH2            27.5394967667       -1.0820904598       30.5509995612  TIP3      1235            0.0000000000
     17172      1381  TIP3      H1             27.9339326529       -1.2157925992       29.6783984503  TIP3      1235            0.0000000000
     17173      1381  TIP3      H2             28.3154261609       -1.2011028583       31.1262193986  TIP3      1235            0.0000000000
     17174      1382  TIP3      OH2            27.0849031933       -6.0111943818       36.1681886608  TIP3      1236            0.0000000000
     17175      1382  TIP3      H1             27.9359997427       -6.1513488179       36.6299082049  TIP3      1236            0.0000000000
     17176      1382  TIP3      H2             26.6366090694       -6.8624969230       36.3577091423  TIP3      1236            0.0000000000
     17177      1383  TIP3      OH2            28.1663660242       -7.6134263125       29.4815496258  TIP3      1237            0.0000000000
     17178      1383  TIP3      H1             28.3531533848       -8.5118936264       29.8265451178  TIP3      1237            0.0000000000
     17179      1383  TIP3      H2             28.9207845634       -7.1334705498       29.8562652720  TIP3      1237            0.0000000000
     17180      1384  TIP3      OH2            26.0845942869       -5.0190816377       30.3354125955  TIP3      1238            0.0000000000
     17181      1384  TIP3      H1             26.7849803095       -4.6370481515       29.7658401763  TIP3      1238            0.0000000000
     17182      1384  TIP3      H2             26.6225753837       -4.9841631039       31.1618467586  TIP3      1238            0.0000000000
     17183      1385  TIP3      OH2            26.5813066588       -8.4102171159       25.0119195839  TIP3      1239            0.0000000000
     17184      1385  TIP3      H1             25.7471216289       -7.9568096080       24.8519931283  TIP3      1239            0.0000000000
     17185      1385  TIP3      H2             27.1723215418       -7.9643555963       24.3749593422  TIP3      1239            0.0000000000
     17186      1386  TIP3      OH2            26.8479285100      -10.0825939628       33.0209917387  TIP3      1240            0.0000000000
     17187      1386  TIP3      H1             26.2474039542      -10.0799055587       33.7979373515  TIP3      1240            0.0000000000
     17188      1386  TIP3      H2             26.4669438900       -9.4034432081       32.4313879767  TIP3      1240            0.0000000000
     17189      1387  TIP3      OH2            28.4134936443        2.9977154579       37.6666488957  TIP3      1241            0.0000000000
     17190      1387  TIP3      H1             27.8083707186        2.8872928878       36.9082636496  TIP3      1241            0.0000000000
     17191      1387  TIP3      H2             28.3185336429        3.9464513322       37.8400519332  TIP3      1241            0.0000000000
     17192      1388  TIP3      OH2            28.9366835880        6.7051895224       33.6621000880  TIP3      1242            0.0000000000
     17193      1388  TIP3      H1             29.2478103172        7.2243529896       32.9094039592  TIP3      1242            0.0000000000
     17194      1388  TIP3      H2             28.4389596760        7.3548583323       34.1716352146  TIP3      1242            0.0000000000
     17195      1389  TIP3      OH2            28.6031482206        5.9174725338       30.4507343287  TIP3      1243            0.0000000000
     17196      1389  TIP3      H1             28.3317237059        5.3172476259       31.1832430288  TIP3      1243            0.0000000000
     17197      1389  TIP3      H2             29.5151009628        5.6396520768       30.3097096652  TIP3      1243            0.0000000000
     17198      1390  TIP3      OH2            29.1539206247       -9.9846409263       27.5424614510  TIP3      1244            0.0000000000
     17199      1390  TIP3      H1             28.2100995904       -9.9391772192       27.3332977294  TIP3      1244            0.0000000000
     17200      1390  TIP3      H2             29.4557845551      -10.6716924901       26.9113828711  TIP3      1244            0.0000000000
     17201      1391  TIP3      OH2            27.4444391406        5.0422708905       23.7825412725  TIP3      1245            0.0000000000
     17202      1391  TIP3      H1             26.6130370027        5.4812977347       23.5092744228  TIP3      1245            0.0000000000
     17203      1391  TIP3      H2             28.1054448756        5.5445411027       23.2622966700  TIP3      1245            0.0000000000
     17204      1392  TIP3      OH2            28.6074727899      -10.0972188528       36.3447283777  TIP3      1246            0.0000000000
     17205      1392  TIP3      H1             28.1637718738      -10.9082176260       36.6677097175  TIP3      1246            0.0000000000
     17206      1392  TIP3      H2             29.4638563044      -10.1565620848       36.7830129117  TIP3      1246            0.0000000000
     17207      1393  TIP3      OH2            29.5612767769        6.1797624626       22.2068574548  TIP3      1247            0.0000000000
     17208      1393  TIP3      H1             30.1777352712        6.9119600547       22.3973141973  TIP3      1247            0.0000000000
     17209      1393  TIP3      H2             29.9800446577        5.7901809840       21.4048607141  TIP3      1247            0.0000000000
     17210      1394  TIP3      OH2           -18.0567327954       17.7069158425       26.7664463681  TIP3      1248            0.0000000000
     17211      1394  TIP3      H1            -18.1440169897       18.6848300906       26.8281861568  TIP3      1248            0.0000000000
     17212      1394  TIP3      H2            -18.8769871419       17.5072488343       26.2752303560  TIP3      1248            0.0000000000
     17213      1395  TIP3      OH2           -19.3668390528       16.7487484659       30.4452826925  TIP3      1249            0.0000000000
     17214      1395  TIP3      H1            -19.2868673061       16.2928660384       31.3122022756  TIP3      1249            0.0000000000
     17215      1395  TIP3      H2            -20.0983116932       16.3100041692       29.9831782345  TIP3      1249            0.0000000000
     17216      1396  TIP3      OH2           -27.0463139595       16.6496996733       31.7150667295  TIP3      1250            0.0000000000
     17217      1396  TIP3      H1            -27.5011517341       16.0046524013       32.2891465741  TIP3      1250            0.0000000000
     17218      1396  TIP3      H2            -26.1997190142       16.7535198278       32.1766731823  TIP3      1250            0.0000000000
     17219      1397  TIP3      OH2           -15.9502926193       19.8193783494       28.8484499916  TIP3      1251            0.0000000000
     17220      1397  TIP3      H1            -16.2047466594       19.1406590583       29.4903152976  TIP3      1251            0.0000000000
     17221      1397  TIP3      H2            -15.6057558048       20.5147838417       29.4388738288  TIP3      1251            0.0000000000
     17222      1398  TIP3      OH2           -26.5423729007       20.9632633443       29.8294112365  TIP3      1252            0.0000000000
     17223      1398  TIP3      H1            -26.6210500303       20.0098142341       29.5977543136  TIP3      1252            0.0000000000
     17224      1398  TIP3      H2            -25.5831634959       20.9976098191       29.9451029409  TIP3      1252            0.0000000000
     17225      1399  TIP3      OH2           -29.3948038898       14.4760195215       25.3272472654  TIP3      1253            0.0000000000
     17226      1399  TIP3      H1            -29.5771112471       15.3929298009       25.5767821979  TIP3      1253            0.0000000000
     17227      1399  TIP3      H2            -30.1630057466       13.9996971375       25.7227674401  TIP3      1253            0.0000000000
     17228      1400  TIP3      OH2           -29.4087066622       16.5817791045       28.0570506668  TIP3      1254            0.0000000000
     17229      1400  TIP3      H1            -28.9393474359       15.7623854337       28.3220122528  TIP3      1254            0.0000000000
     17230      1400  TIP3      H2            -28.7022456213       17.2012235824       27.7975058781  TIP3      1254            0.0000000000
     17231      1401  TIP3      OH2           -18.6510114531       25.1691238203       29.0638300502  TIP3      1255            0.0000000000
     17232      1401  TIP3      H1            -18.0131078685       24.5230735870       28.6659702892  TIP3      1255            0.0000000000
     17233      1401  TIP3      H2            -19.2138792007       24.5447257046       29.5401639865  TIP3      1255            0.0000000000
     17234      1402  TIP3      OH2           -21.1183514011       19.5327443780       31.2963988961  TIP3      1256            0.0000000000
     17235      1402  TIP3      H1            -20.7400493578       19.1487287364       30.4917021083  TIP3      1256            0.0000000000
     17236      1402  TIP3      H2            -20.2936150430       19.7153256052       31.8046400172  TIP3      1256            0.0000000000
     17237      1403  TIP3      OH2           -12.5537391065       10.8194600405       31.1045262479  TIP3      1257            0.0000000000
     17238      1403  TIP3      H1            -12.5277641079       11.4120248184       31.8840698527  TIP3      1257            0.0000000000
     17239      1403  TIP3      H2            -11.6897359306       11.0352096974       30.7075540571  TIP3      1257            0.0000000000
     17240      1404  TIP3      OH2           -17.4759904075       13.9219629621       31.3632498017  TIP3      1258            0.0000000000
     17241      1404  TIP3      H1            -17.3386879824       12.9695427408       31.5098542869  TIP3      1258            0.0000000000
     17242      1404  TIP3      H2            -17.8256969080       13.8766043532       30.4494678562  TIP3      1258            0.0000000000
     17243      1405  TIP3      OH2           -23.9794001247       11.0840923741       27.7478331087  TIP3      1259            0.0000000000
     17244      1405  TIP3      H1            -24.2282603524       11.9957352573       27.4857505676  TIP3      1259            0.0000000000
     17245      1405  TIP3      H2            -24.8803425257       10.7326567589       27.8770957702  TIP3      1259            0.0000000000
     17246      1406  TIP3      OH2           -16.8518306273       11.8677200179       26.4251869330  TIP3      1260            0.0000000000
     17247      1406  TIP3      H1            -16.5265129242       11.9210496028       27.3548262167  TIP3      1260            0.0000000000
     17248      1406  TIP3      H2            -17.0531478102       12.7888513809       26.1986046957  TIP3      1260            0.0000000000
     17249      1407  TIP3      OH2           -28.4730253190       13.7152786771       28.6928002796  TIP3      1261            0.0000000000
     17250      1407  TIP3      H1            -27.8017238241       13.2100482544       29.2039622475  TIP3      1261            0.0000000000
     17251      1407  TIP3      H2            -27.9956662649       13.7287047722       27.8442196928  TIP3      1261            0.0000000000
     17252      1408  TIP3      OH2           -23.5684655218       15.9234724947       28.3318231594  TIP3      1262            0.0000000000
     17253      1408  TIP3      H1            -22.6879708598       15.5368749264       28.5299813816  TIP3      1262            0.0000000000
     17254      1408  TIP3      H2            -23.9842115252       15.1431366703       27.8907919663  TIP3      1262            0.0000000000
     17255      1409  TIP3      OH2           -12.4472730261       12.2684565430       33.4957729354  TIP3      1263            0.0000000000
     17256      1409  TIP3      H1            -12.8602255487       13.0415760318       33.0417042981  TIP3      1263            0.0000000000
     17257      1409  TIP3      H2            -12.0145829334       12.6967948937       34.2533500666  TIP3      1263            0.0000000000
     17258      1410  TIP3      OH2           -26.0156365679       10.7561428569       32.1921311623  TIP3      1264            0.0000000000
     17259      1410  TIP3      H1            -26.5417878734       11.1354594254       31.4599716522  TIP3      1264            0.0000000000
     17260      1410  TIP3      H2            -26.6961688326       10.8096695253       32.8938641975  TIP3      1264            0.0000000000
     17261      1411  TIP3      OH2           -18.7208522729       20.2877763727       25.9841955878  TIP3      1265            0.0000000000
     17262      1411  TIP3      H1            -18.8896351968       20.3231518529       25.0199798506  TIP3      1265            0.0000000000
     17263      1411  TIP3      H2            -19.1398703295       21.1251880397       26.2924631417  TIP3      1265            0.0000000000
     17264      1412  TIP3      OH2           -23.4915537195       18.4538531222       32.0302984778  TIP3      1266            0.0000000000
     17265      1412  TIP3      H1            -24.0755413906       19.1913388143       32.3210887463  TIP3      1266            0.0000000000
     17266      1412  TIP3      H2            -22.6875658909       18.9674285992       31.7850059174  TIP3      1266            0.0000000000
     17267      1413  TIP3      OH2           -15.3236106142       12.1079606378       28.7840501814  TIP3      1267            0.0000000000
     17268      1413  TIP3      H1            -14.9173836641       11.2477298114       28.9619552072  TIP3      1267            0.0000000000
     17269      1413  TIP3      H2            -14.6304911949       12.7206067912       29.1325107436  TIP3      1267            0.0000000000
     17270      1414  TIP3      OH2           -26.1154155675       13.0453623204       30.1934108485  TIP3      1268            0.0000000000
     17271      1414  TIP3      H1            -25.4023337240       13.6045435631       30.5504161725  TIP3      1268            0.0000000000
     17272      1414  TIP3      H2            -25.7471468638       12.6935490057       29.3643084379  TIP3      1268            0.0000000000
     17273      1415  TIP3      OH2           -24.8841142763       20.5497326771       33.0181413492  TIP3      1269            0.0000000000
     17274      1415  TIP3      H1            -25.1612785596       21.3862406029       32.6196262407  TIP3      1269            0.0000000000
     17275      1415  TIP3      H2            -25.6761503583       20.3993371190       33.5995490376  TIP3      1269            0.0000000000
     17276      1416  TIP3      OH2           -28.7488291900       20.2344741327       23.9118161570  TIP3      1270            0.0000000000
     17277      1416  TIP3      H1            -28.7659985394       20.9730353192       23.2799295159  TIP3      1270            0.0000000000
     17278      1416  TIP3      H2            -28.6087308283       20.6972290645       24.7694108604  TIP3      1270            0.0000000000
     17279      1417  TIP3      OH2           -15.3915698460       21.6127274195       30.8214112419  TIP3      1271            0.0000000000
     17280      1417  TIP3      H1            -16.3415833239       21.7789113858       31.0008362685  TIP3      1271            0.0000000000
     17281      1417  TIP3      H2            -15.1748110874       22.4882092786       30.4522371864  TIP3      1271            0.0000000000
     17282      1418  TIP3      OH2           -15.5091679259       10.2840325070       32.0546157727  TIP3      1272            0.0000000000
     17283      1418  TIP3      H1            -16.3411180182       10.6242782148       31.6461257027  TIP3      1272            0.0000000000
     17284      1418  TIP3      H2            -14.8417470636       10.8298773608       31.6057666993  TIP3      1272            0.0000000000
     17285      1419  TIP3      OH2           -22.4669363760        8.2564373435       29.5588455364  TIP3      1273            0.0000000000
     17286      1419  TIP3      H1            -22.7113049588        7.3795313605       29.8963351306  TIP3      1273            0.0000000000
     17287      1419  TIP3      H2            -23.3000062666        8.7468307686       29.7915872673  TIP3      1273            0.0000000000
     17288      1420  TIP3      OH2           -17.0838800926       23.4113063707       27.8511193689  TIP3      1274            0.0000000000
     17289      1420  TIP3      H1            -16.8457760176       22.6911452936       27.2292638989  TIP3      1274            0.0000000000
     17290      1420  TIP3      H2            -16.3447517599       24.0318012902       27.6426744362  TIP3      1274            0.0000000000
     17291      1421  TIP3      OH2           -16.1155916165       21.6200522232       25.9530500065  TIP3      1275            0.0000000000
     17292      1421  TIP3      H1            -16.7643933318       21.3136351174       25.2981439938  TIP3      1275            0.0000000000
     17293      1421  TIP3      H2            -16.0689272468       20.8346983998       26.5264869528  TIP3      1275            0.0000000000
     17294      1422  TIP3      OH2           -14.2902078373       20.1125878527       34.6235229252  TIP3      1276            0.0000000000
     17295      1422  TIP3      H1            -14.1282285154       19.4349675138       33.9278798335  TIP3      1276            0.0000000000
     17296      1422  TIP3      H2            -14.1404422004       20.9157657672       34.0728347431  TIP3      1276            0.0000000000
     17297      1423  TIP3      OH2           -19.6453077906       17.0802901425       24.5473822468  TIP3      1277            0.0000000000
     17298      1423  TIP3      H1            -20.0055671747       17.9387374273       24.2670993241  TIP3      1277            0.0000000000
     17299      1423  TIP3      H2            -18.8541822391       16.9902595048       23.9701084651  TIP3      1277            0.0000000000
     17300      1424  TIP3      OH2           -12.4808555428       16.6678146003       32.5534696008  TIP3      1278            0.0000000000
     17301      1424  TIP3      H1            -13.2305377085       17.3162512075       32.5927889093  TIP3      1278            0.0000000000
     17302      1424  TIP3      H2            -11.9102668490       17.1372299569       31.8979862885  TIP3      1278            0.0000000000
     17303      1425  TIP3      OH2           -15.9266787578       16.9835145342       25.3628924437  TIP3      1279            0.0000000000
     17304      1425  TIP3      H1            -16.6550983286       17.2719101073       25.9708998772  TIP3      1279            0.0000000000
     17305      1425  TIP3      H2            -15.3530089487       16.4969395052       25.9831094756  TIP3      1279            0.0000000000
     17306      1426  TIP3      OH2           -15.5377116923       15.9474775892       34.0311380947  TIP3      1280            0.0000000000
     17307      1426  TIP3      H1            -15.4674108981       16.6246671556       34.7135511193  TIP3      1280            0.0000000000
     17308      1426  TIP3      H2            -16.4934143636       15.9839308412       33.8373336890  TIP3      1280            0.0000000000
     17309      1427  TIP3      OH2           -24.6060684491       18.0519779002       27.2493397451  TIP3      1281            0.0000000000
     17310      1427  TIP3      H1            -25.2938499474       17.6402476368       26.6838603619  TIP3      1281            0.0000000000
     17311      1427  TIP3      H2            -24.1513878108       17.2613943440       27.6189341124  TIP3      1281            0.0000000000
     17312      1428  TIP3      OH2           -23.2370057745       21.0724170468       29.8604512118  TIP3      1282            0.0000000000
     17313      1428  TIP3      H1            -23.2109105616       20.9736999916       28.8889391590  TIP3      1282            0.0000000000
     17314      1428  TIP3      H2            -22.4132676762       20.6645175899       30.1683584063  TIP3      1282            0.0000000000
     17315      1429  TIP3      OH2           -24.1813885233       16.2047203736       30.9140197793  TIP3      1283            0.0000000000
     17316      1429  TIP3      H1            -23.9492756020       16.2525761259       29.9583608507  TIP3      1283            0.0000000000
     17317      1429  TIP3      H2            -23.8016182698       17.0468011535       31.2663363257  TIP3      1283            0.0000000000
     17318      1430  TIP3      OH2           -17.8864256975       22.2971824266       31.5770838862  TIP3      1284            0.0000000000
     17319      1430  TIP3      H1            -18.1954846020       22.8609322047       32.3019083365  TIP3      1284            0.0000000000
     17320      1430  TIP3      H2            -18.0147736933       21.4056972595       31.9556509482  TIP3      1284            0.0000000000
     17321      1431  TIP3      OH2           -23.3185153343       20.9764870608       35.2296566594  TIP3      1285            0.0000000000
     17322      1431  TIP3      H1            -24.0631525362       21.4009090084       35.7151120211  TIP3      1285            0.0000000000
     17323      1431  TIP3      H2            -23.7699755116       20.7783097907       34.3791461952  TIP3      1285            0.0000000000
     17324      1432  TIP3      OH2           -17.3836548967       17.0705901382       23.1407126731  TIP3      1286            0.0000000000
     17325      1432  TIP3      H1            -16.8553341513       17.1283424999       23.9662290400  TIP3      1286            0.0000000000
     17326      1432  TIP3      H2            -16.8289011243       17.5881157663       22.5319918708  TIP3      1286            0.0000000000
     17327      1433  TIP3      OH2           -25.8492986080       16.8308254757       34.8029656356  TIP3      1287            0.0000000000
     17328      1433  TIP3      H1            -25.7828261285       17.4443476837       35.5565420415  TIP3      1287            0.0000000000
     17329      1433  TIP3      H2            -26.8165199343       16.7607448547       34.6976977771  TIP3      1287            0.0000000000
     17330      1434  TIP3      OH2           -19.4518024392       22.8514957032       26.5840807979  TIP3      1288            0.0000000000
     17331      1434  TIP3      H1            -18.8791717829       23.1905717927       27.2856246456  TIP3      1288            0.0000000000
     17332      1434  TIP3      H2            -19.9781921801       23.6143585188       26.3287279374  TIP3      1288            0.0000000000
     17333      1435  TIP3      OH2           -25.1965018744       22.5989259298       36.3596673780  TIP3      1289            0.0000000000
     17334      1435  TIP3      H1            -25.2807865934       23.1094494756       35.5254361606  TIP3      1289            0.0000000000
     17335      1435  TIP3      H2            -26.1396430964       22.3989368533       36.5496686692  TIP3      1289            0.0000000000
     17336      1436  TIP3      OH2           -13.8982736781        7.8849791209       23.0253075162  TIP3      1290            0.0000000000
     17337      1436  TIP3      H1            -14.8189701224        7.8329579774       23.3621461857  TIP3      1290            0.0000000000
     17338      1436  TIP3      H2            -13.6353511073        8.7145811780       23.4736093718  TIP3      1290            0.0000000000
     17339      1437  TIP3      OH2           -26.4800312658       16.6967940756       25.4444864033  TIP3      1291            0.0000000000
     17340      1437  TIP3      H1            -26.4935948558       17.2069159942       24.6087042380  TIP3      1291            0.0000000000
     17341      1437  TIP3      H2            -26.6094317391       15.7799585322       25.1445856856  TIP3      1291            0.0000000000
     17342      1438  TIP3      OH2           -28.7979215531       18.8035939273       34.1220366217  TIP3      1292            0.0000000000
     17343      1438  TIP3      H1            -29.5420933732       18.8814482847       33.5022023816  TIP3      1292            0.0000000000
     17344      1438  TIP3      H2            -28.8235734425       17.8430293997       34.3214400939  TIP3      1292            0.0000000000
     17345      1439  TIP3      OH2           -29.1858851430       22.0532244735       29.9036521673  TIP3      1293            0.0000000000
     17346      1439  TIP3      H1            -28.4025053905       21.4608470186       29.9599355543  TIP3      1293            0.0000000000
     17347      1439  TIP3      H2            -29.0495999908       22.6017400864       30.6851491482  TIP3      1293            0.0000000000
     17348      1440  TIP3      OH2           -11.6051035376       22.6625058970       36.3338043783  TIP3      1294            0.0000000000
     17349      1440  TIP3      H1            -11.6789264817       21.7104964765       36.4924531993  TIP3      1294            0.0000000000
     17350      1440  TIP3      H2            -12.5265711958       22.9183991387       36.5909339598  TIP3      1294            0.0000000000
     17351      1441  TIP3      OH2           -20.6955428860       22.0542837816       35.2310898235  TIP3      1295            0.0000000000
     17352      1441  TIP3      H1            -20.6507720308       22.8705979255       35.7573737758  TIP3      1295            0.0000000000
     17353      1441  TIP3      H2            -21.6352388110       21.7706862332       35.2873617701  TIP3      1295            0.0000000000
     17354      1442  TIP3      OH2           -20.3901447887       25.8289682864       24.3902914878  TIP3      1296            0.0000000000
     17355      1442  TIP3      H1            -19.8611040357       26.0212130941       23.6082903851  TIP3      1296            0.0000000000
     17356      1442  TIP3      H2            -20.1634059978       26.5611989470       24.9977470682  TIP3      1296            0.0000000000
     17357      1443  TIP3      OH2           -26.6079980542       24.7743424516       26.6058584934  TIP3      1297            0.0000000000
     17358      1443  TIP3      H1            -26.5284426228       24.2895235648       27.4596481908  TIP3      1297            0.0000000000
     17359      1443  TIP3      H2            -27.4639195614       24.4436903887       26.2867018473  TIP3      1297            0.0000000000
     17360      1444  TIP3      OH2           -17.4413592753       25.2078771497       24.7728109061  TIP3      1298            0.0000000000
     17361      1444  TIP3      H1            -18.2769126035       24.7308529019       24.6208703261  TIP3      1298            0.0000000000
     17362      1444  TIP3      H2            -16.8138169908       24.4916396241       24.9780823371  TIP3      1298            0.0000000000
     17363      1445  TIP3      OH2           -14.6332443546       13.7403930222       36.6412087253  TIP3      1299            0.0000000000
     17364      1445  TIP3      H1            -15.1599226820       14.1359661062       35.9247427813  TIP3      1299            0.0000000000
     17365      1445  TIP3      H2            -14.5975417010       12.8184825771       36.3177621979  TIP3      1299            0.0000000000
     17366      1446  TIP3      OH2           -26.8953969528       20.6241037016       34.6856245509  TIP3      1300            0.0000000000
     17367      1446  TIP3      H1            -26.8020008048       20.3980557896       35.6271174597  TIP3      1300            0.0000000000
     17368      1446  TIP3      H2            -27.6964627065       20.0909785458       34.4516238966  TIP3      1300            0.0000000000
     17369      1447  TIP3      OH2           -24.6565807365        9.1868954073       30.5815839492  TIP3      1301            0.0000000000
     17370      1447  TIP3      H1            -25.5343806808        9.0522195680       30.1541745282  TIP3      1301            0.0000000000
     17371      1447  TIP3      H2            -24.9561606617        9.8550009168       31.2360109962  TIP3      1301            0.0000000000
     17372      1448  TIP3      OH2           -19.3085450598        8.5620583962       33.6796463608  TIP3      1302            0.0000000000
     17373      1448  TIP3      H1            -18.8131788344        8.0882113420       34.3891281430  TIP3      1302            0.0000000000
     17374      1448  TIP3      H2            -20.2069625448        8.5824618718       34.0566387078  TIP3      1302            0.0000000000
     17375      1449  TIP3      OH2           -16.9240430750       12.9825893734       34.4939221704  TIP3      1303            0.0000000000
     17376      1449  TIP3      H1            -17.4784593538       12.9139731144       35.3006593521  TIP3      1303            0.0000000000
     17377      1449  TIP3      H2            -17.4698522492       13.5193515402       33.9027109589  TIP3      1303            0.0000000000
     17378      1450  TIP3      OH2           -20.2291594587       11.7345163061       21.4670352745  TIP3      1304            0.0000000000
     17379      1450  TIP3      H1            -20.6175270162       11.0636246942       22.0691433604  TIP3      1304            0.0000000000
     17380      1450  TIP3      H2            -20.3826279622       11.3096614341       20.6138354849  TIP3      1304            0.0000000000
     17381      1451  TIP3      OH2           -24.3730528648       13.9422148967       32.1736939645  TIP3      1305            0.0000000000
     17382      1451  TIP3      H1            -25.3279450539       13.7640566210       32.2467253137  TIP3      1305            0.0000000000
     17383      1451  TIP3      H2            -24.3465600089       14.8919346151       31.9011419259  TIP3      1305            0.0000000000
     17384      1452  TIP3      OH2           -24.5302343844       13.7123741880       27.1339502541  TIP3      1306            0.0000000000
     17385      1452  TIP3      H1            -25.4482344387       13.8938078763       26.8163935853  TIP3      1306            0.0000000000
     17386      1452  TIP3      H2            -24.0123544219       13.9128965633       26.3151372289  TIP3      1306            0.0000000000
     17387      1453  TIP3      OH2           -19.0778527096       14.4315552056       24.9250293192  TIP3      1307            0.0000000000
     17388      1453  TIP3      H1            -19.4209756594       15.3515369023       24.8647489067  TIP3      1307            0.0000000000
     17389      1453  TIP3      H2            -18.2816328974       14.4927814657       24.3615290083  TIP3      1307            0.0000000000
     17390      1454  TIP3      OH2           -20.0123370679       15.0754420133       36.9950397035  TIP3      1308            0.0000000000
     17391      1454  TIP3      H1            -20.3846859058       14.2600057006       37.3824477062  TIP3      1308            0.0000000000
     17392      1454  TIP3      H2            -19.1104369250       15.0149519115       37.3451173061  TIP3      1308            0.0000000000
     17393      1455  TIP3      OH2           -17.9362996465       14.4560890197       28.4889372493  TIP3      1309            0.0000000000
     17394      1455  TIP3      H1            -18.0276521448       15.3819241693       28.1963385575  TIP3      1309            0.0000000000
     17395      1455  TIP3      H2            -18.1261848652       13.9956911628       27.6634670155  TIP3      1309            0.0000000000
     17396      1456  TIP3      OH2           -27.2524440919       13.8752973359       32.9622548358  TIP3      1310            0.0000000000
     17397      1456  TIP3      H1            -27.1714080911       14.2189092138       33.8646723728  TIP3      1310            0.0000000000
     17398      1456  TIP3      H2            -27.5313645063       12.9574487735       33.1488457146  TIP3      1310            0.0000000000
     17399      1457  TIP3      OH2           -30.2612671446       10.9679394426       27.3383525228  TIP3      1311            0.0000000000
     17400      1457  TIP3      H1            -29.2960820523       10.8528490910       27.4932078607  TIP3      1311            0.0000000000
     17401      1457  TIP3      H2            -30.6587951993       10.0785437694       27.4650875312  TIP3      1311            0.0000000000
     17402      1458  TIP3      OH2           -28.9922059684       12.2328912846       22.9034938260  TIP3      1312            0.0000000000
     17403      1458  TIP3      H1            -28.1820121277       12.2739347299       22.3810212777  TIP3      1312            0.0000000000
     17404      1458  TIP3      H2            -28.9124735341       13.0223856888       23.4744306092  TIP3      1312            0.0000000000
     17405      1459  TIP3      OH2           -18.5118076792       15.9110476439       32.8645649123  TIP3      1313            0.0000000000
     17406      1459  TIP3      H1            -18.0358688689       15.2222091753       32.3451871871  TIP3      1313            0.0000000000
     17407      1459  TIP3      H2            -19.1495170669       15.3586971400       33.3766965094  TIP3      1313            0.0000000000
     17408      1460  TIP3      OH2           -21.3992119121       12.0196217781       27.3632402018  TIP3      1314            0.0000000000
     17409      1460  TIP3      H1            -22.3253806617       11.7086263577       27.2805694658  TIP3      1314            0.0000000000
     17410      1460  TIP3      H2            -21.0563687350       11.3728549846       28.0154618568  TIP3      1314            0.0000000000
     17411      1461  TIP3      OH2           -27.0099570113       13.8572898360       26.2733220204  TIP3      1315            0.0000000000
     17412      1461  TIP3      H1            -27.8748127406       14.0464919412       25.8400971081  TIP3      1315            0.0000000000
     17413      1461  TIP3      H2            -27.0556106682       12.8807892307       26.4095344237  TIP3      1315            0.0000000000
     17414      1462  TIP3      OH2           -23.4687968744       13.8161162136       24.6657353051  TIP3      1316            0.0000000000
     17415      1462  TIP3      H1            -22.6474635328       13.2831492551       24.6133547712  TIP3      1316            0.0000000000
     17416      1462  TIP3      H2            -24.0793754176       13.3190964384       24.1058979619  TIP3      1316            0.0000000000
     17417      1463  TIP3      OH2           -17.6845788207       11.0660853666       30.8208034380  TIP3      1317            0.0000000000
     17418      1463  TIP3      H1            -18.4412755029       10.7994487902       31.3696164568  TIP3      1317            0.0000000000
     17419      1463  TIP3      H2            -17.8121121791       10.6095590291       29.9710145693  TIP3      1317            0.0000000000
     17420      1464  TIP3      OH2           -14.5533115704       26.2375611996       37.6059912997  TIP3      1318            0.0000000000
     17421      1464  TIP3      H1            -14.2429091760       26.5637779670       36.7387325499  TIP3      1318            0.0000000000
     17422      1464  TIP3      H2            -13.9638930648       26.7352931873       38.1874814283  TIP3      1318            0.0000000000
     17423      1465  TIP3      OH2           -26.4652227386       18.6591211137       36.9586989687  TIP3      1319            0.0000000000
     17424      1465  TIP3      H1            -25.9851074078       18.9669448007       37.7638772376  TIP3      1319            0.0000000000
     17425      1465  TIP3      H2            -27.3647686201       18.5628653855       37.3038967119  TIP3      1319            0.0000000000
     17426      1466  TIP3      OH2           -21.3517705985       14.5091848650       29.2381948617  TIP3      1320            0.0000000000
     17427      1466  TIP3      H1            -20.4879598607       14.1848688603       28.9438798449  TIP3      1320            0.0000000000
     17428      1466  TIP3      H2            -21.7925957216       13.6861921046       29.5108948659  TIP3      1320            0.0000000000
     17429      1467  TIP3      OH2           -24.7871542769       10.6554962760       24.9673549196  TIP3      1321            0.0000000000
     17430      1467  TIP3      H1            -25.5010907890       10.4685173086       25.6084352235  TIP3      1321            0.0000000000
     17431      1467  TIP3      H2            -24.0750212652       10.0803875821       25.2932223763  TIP3      1321            0.0000000000
     17432      1468  TIP3      OH2           -22.1647105995       12.6098379426       32.2184305934  TIP3      1322            0.0000000000
     17433      1468  TIP3      H1            -22.9088361695       13.2586037183       32.2169740168  TIP3      1322            0.0000000000
     17434      1468  TIP3      H2            -21.4173524298       13.1539397711       32.4846293488  TIP3      1322            0.0000000000
     17435      1469  TIP3      OH2           -21.3876656665       19.3963745419       23.7681773332  TIP3      1323            0.0000000000
     17436      1469  TIP3      H1            -21.9877655577       18.7471435457       23.3661782651  TIP3      1323            0.0000000000
     17437      1469  TIP3      H2            -21.8124343403       19.4924507809       24.6572711464  TIP3      1323            0.0000000000
     17438      1470  TIP3      OH2           -14.0920259049       18.8117318456       32.4267329647  TIP3      1324            0.0000000000
     17439      1470  TIP3      H1            -13.6204968131       19.2808431854       31.6928028166  TIP3      1324            0.0000000000
     17440      1470  TIP3      H2            -14.9718766263       18.7143089769       32.0239045946  TIP3      1324            0.0000000000
     17441      1471  TIP3      OH2           -17.8307234169       11.9060114642       22.7678326160  TIP3      1325            0.0000000000
     17442      1471  TIP3      H1            -18.6545387102       12.1864580341       22.3028350349  TIP3      1325            0.0000000000
     17443      1471  TIP3      H2            -17.3812525045       12.7768116015       22.8423606461  TIP3      1325            0.0000000000
     17444      1472  TIP3      OH2           -20.0812124578       19.3371044268       35.9842832521  TIP3      1326            0.0000000000
     17445      1472  TIP3      H1            -20.9141179456       19.2232059910       36.4854228275  TIP3      1326            0.0000000000
     17446      1472  TIP3      H2            -20.1263604688       20.2607765270       35.7073955324  TIP3      1326            0.0000000000
     17447      1473  TIP3      OH2           -16.8912529285       14.3589555972       23.3571753560  TIP3      1327            0.0000000000
     17448      1473  TIP3      H1            -16.0545904301       14.0830012870       23.7986871658  TIP3      1327            0.0000000000
     17449      1473  TIP3      H2            -16.7316412009       15.2802064863       23.0763602343  TIP3      1327            0.0000000000
     17450      1474  TIP3      OH2           -26.4788427995       18.3775607939       29.1505755655  TIP3      1328            0.0000000000
     17451      1474  TIP3      H1            -25.7750994498       18.3705942164       28.4674644086  TIP3      1328            0.0000000000
     17452      1474  TIP3      H2            -26.1467178515       17.7429472647       29.8052054952  TIP3      1328            0.0000000000
     17453      1475  TIP3      OH2           -18.8723138023       20.1705790473       23.2938822801  TIP3      1329            0.0000000000
     17454      1475  TIP3      H1            -19.0087926896       20.8604058492       22.6296976122  TIP3      1329            0.0000000000
     17455      1475  TIP3      H2            -19.7435053605       19.7215554884       23.2747181303  TIP3      1329            0.0000000000
     17456      1476  TIP3      OH2           -29.0108709080       16.1395060797       34.4672044500  TIP3      1330            0.0000000000
     17457      1476  TIP3      H1            -29.1286089333       15.8116473419       35.3810796248  TIP3      1330            0.0000000000
     17458      1476  TIP3      H2            -29.8822454908       15.8753380370       34.1313563873  TIP3      1330            0.0000000000
     17459      1477  TIP3      OH2           -22.6753881198       16.5783381387       36.6956804470  TIP3      1331            0.0000000000
     17460      1477  TIP3      H1            -23.0209344317       15.9713869602       36.0073376912  TIP3      1331            0.0000000000
     17461      1477  TIP3      H2            -21.7370719524       16.3177299195       36.7130911305  TIP3      1331            0.0000000000
     17462      1478  TIP3      OH2           -17.3978116270       21.5195219553       35.2584794653  TIP3      1332            0.0000000000
     17463      1478  TIP3      H1            -18.1813133779       21.6873044480       34.7085321174  TIP3      1332            0.0000000000
     17464      1478  TIP3      H2            -17.6519215828       22.0323152696       36.0550643139  TIP3      1332            0.0000000000
     17465      1479  TIP3      OH2           -12.4319349809       14.1297055826       23.2428818557  TIP3      1333            0.0000000000
     17466      1479  TIP3      H1            -12.6417721950       14.9698671893       22.7509354651  TIP3      1333            0.0000000000
     17467      1479  TIP3      H2            -11.7949504433       14.5063664102       23.8733292550  TIP3      1333            0.0000000000
     17468      1480  TIP3      OH2           -11.7684999134       19.8071662484       35.8401963049  TIP3      1334            0.0000000000
     17469      1480  TIP3      H1            -12.6822520844       20.0138919237       35.5236482991  TIP3      1334            0.0000000000
     17470      1480  TIP3      H2            -11.3259409209       19.6426935118       34.9775545715  TIP3      1334            0.0000000000
     17471      1481  TIP3      OH2           -13.6034886489       22.1891619030       23.4960655938  TIP3      1335            0.0000000000
     17472      1481  TIP3      H1            -14.0089973790       22.1241442101       24.3747300347  TIP3      1335            0.0000000000
     17473      1481  TIP3      H2            -14.3351681570       21.7903061696       22.9576382136  TIP3      1335            0.0000000000
     17474      1482  TIP3      OH2           -16.3504566747       17.6456461189       30.7812534379  TIP3      1336            0.0000000000
     17475      1482  TIP3      H1            -17.1716333769       17.1415390553       30.6641519549  TIP3      1336            0.0000000000
     17476      1482  TIP3      H2            -15.7351047075       17.1176736568       30.2343019720  TIP3      1336            0.0000000000
     17477      1483  TIP3      OH2           -23.8962712035       21.8008354988       27.1657146568  TIP3      1337            0.0000000000
     17478      1483  TIP3      H1            -23.5034780606       22.6845493380       27.0050900587  TIP3      1337            0.0000000000
     17479      1483  TIP3      H2            -24.7252922480       21.8813358568       26.6665385141  TIP3      1337            0.0000000000
     17480      1484  TIP3      OH2           -22.5572935466       19.5494285592       26.2046826980  TIP3      1338            0.0000000000
     17481      1484  TIP3      H1            -23.0156768647       20.3601674176       26.5138504350  TIP3      1338            0.0000000000
     17482      1484  TIP3      H2            -23.1000552943       18.8585543894       26.6275505452  TIP3      1338            0.0000000000
     17483      1485  TIP3      OH2           -22.2159916933       23.7529409529       32.9185340991  TIP3      1339            0.0000000000
     17484      1485  TIP3      H1            -21.6196751895       24.5136917886       32.7545099466  TIP3      1339            0.0000000000
     17485      1485  TIP3      H2            -21.6262608907       23.1964518194       33.4488019434  TIP3      1339            0.0000000000
     17486      1486  TIP3      OH2           -23.8251285120       24.3204491883       26.1548252772  TIP3      1340            0.0000000000
     17487      1486  TIP3      H1            -24.7870002824       24.4838629941       26.2439783854  TIP3      1340            0.0000000000
     17488      1486  TIP3      H2            -23.5247294180       25.2183931989       26.4079491464  TIP3      1340            0.0000000000
     17489      1487  TIP3      OH2           -18.6601837704       19.6889706505       32.5009341745  TIP3      1341            0.0000000000
     17490      1487  TIP3      H1            -18.7476454999       19.2659293894       33.3754015908  TIP3      1341            0.0000000000
     17491      1487  TIP3      H2            -18.1252887489       19.0314946341       32.0200711148  TIP3      1341            0.0000000000
     17492      1488  TIP3      OH2           -15.8606020441       21.2148483135       22.4033309311  TIP3      1342            0.0000000000
     17493      1488  TIP3      H1            -16.0492996902       20.4335637407       22.9765566607  TIP3      1342            0.0000000000
     17494      1488  TIP3      H2            -16.6817029631       21.2954901194       21.8979029587  TIP3      1342            0.0000000000
     17495      1489  TIP3      OH2           -15.5906913028       24.5297604051       34.9327915571  TIP3      1343            0.0000000000
     17496      1489  TIP3      H1            -16.2993658864       23.9662937866       34.5929499749  TIP3      1343            0.0000000000
     17497      1489  TIP3      H2            -15.4734628352       25.1736336508       34.1914230381  TIP3      1343            0.0000000000
     17498      1490  TIP3      OH2           -27.7660954123       11.1901244411       34.0994800749  TIP3      1344            0.0000000000
     17499      1490  TIP3      H1            -28.5303312620       10.5955240131       33.9716778545  TIP3      1344            0.0000000000
     17500      1490  TIP3      H2            -27.3373706776       10.7760838592       34.8705916163  TIP3      1344            0.0000000000
     17501      1491  TIP3      OH2           -15.3870363570       19.0308765940       23.7784870711  TIP3      1345            0.0000000000
     17502      1491  TIP3      H1            -15.4963534033       18.2519936870       24.3480107223  TIP3      1345            0.0000000000
     17503      1491  TIP3      H2            -14.4125129345       19.0902765677       23.7374665963  TIP3      1345            0.0000000000
     17504      1492  TIP3      OH2           -27.8766984988       23.1545539217       32.5291991491  TIP3      1346            0.0000000000
     17505      1492  TIP3      H1            -27.5114744705       22.3818077765       32.9970792511  TIP3      1346            0.0000000000
     17506      1492  TIP3      H2            -27.7588906026       23.8589685104       33.1852215242  TIP3      1346            0.0000000000
     17507      1493  TIP3      OH2           -23.4843158803       21.1267248765       22.4915526494  TIP3      1347            0.0000000000
     17508      1493  TIP3      H1            -22.6237164352       20.7918068827       22.8066223202  TIP3      1347            0.0000000000
     17509      1493  TIP3      H2            -23.4142913922       22.0461486371       22.8461077025  TIP3      1347            0.0000000000
     17510      1494  TIP3      OH2           -26.6300756947       18.6742423800       23.1592738726  TIP3      1348            0.0000000000
     17511      1494  TIP3      H1            -27.5294111305       18.8874512363       23.4636041239  TIP3      1348            0.0000000000
     17512      1494  TIP3      H2            -26.3689574670       19.5245861841       22.7731733862  TIP3      1348            0.0000000000
     17513      1495  TIP3      OH2           -19.1202213870       11.3183159586       33.4846524435  TIP3      1349            0.0000000000
     17514      1495  TIP3      H1            -18.2197944260       11.5082651147       33.7933050878  TIP3      1349            0.0000000000
     17515      1495  TIP3      H2            -19.2246111699       10.3730798876       33.7110865572  TIP3      1349            0.0000000000
     17516      1496  TIP3      OH2           -18.0244809765       10.1572178831       24.7483343667  TIP3      1350            0.0000000000
     17517      1496  TIP3      H1            -18.0062532154       10.7414143194       23.9502005446  TIP3      1350            0.0000000000
     17518      1496  TIP3      H2            -17.5698265263       10.7574893051       25.3851918546  TIP3      1350            0.0000000000
     17519      1497  TIP3      OH2           -21.0531566265       12.5910178610       24.7317745801  TIP3      1351            0.0000000000
     17520      1497  TIP3      H1            -20.3574665380       13.2865345538       24.8037066504  TIP3      1351            0.0000000000
     17521      1497  TIP3      H2            -21.1060936602       12.2862971583       25.6665975448  TIP3      1351            0.0000000000
     17522      1498  TIP3      OH2           -19.8001219765       13.9153266539       34.1760007442  TIP3      1352            0.0000000000
     17523      1498  TIP3      H1            -19.9506797900       14.0635970912       35.1264370585  TIP3      1352            0.0000000000
     17524      1498  TIP3      H2            -19.7320529627       12.9375383924       34.1030595111  TIP3      1352            0.0000000000
     17525      1499  TIP3      OH2           -20.3955700695        9.7075792065       25.7695578710  TIP3      1353            0.0000000000
     17526      1499  TIP3      H1            -20.4576433231        9.9514060551       26.7201205531  TIP3      1353            0.0000000000
     17527      1499  TIP3      H2            -19.5073117057       10.0640318433       25.5223436628  TIP3      1353            0.0000000000
     17528      1500  TIP3      OH2           -23.0911968657       23.5052749917       23.6898957901  TIP3      1354            0.0000000000
     17529      1500  TIP3      H1            -22.1882244636       23.8466302441       23.7652910857  TIP3      1354            0.0000000000
     17530      1500  TIP3      H2            -23.5437051132       23.9689946261       24.4357352558  TIP3      1354            0.0000000000
     17531      1501  TIP3      OH2           -24.9619300923       11.4720054278       22.4915895351  TIP3      1355            0.0000000000
     17532      1501  TIP3      H1            -25.0038483447       11.3225815160       23.4665931035  TIP3      1355            0.0000000000
     17533      1501  TIP3      H2            -24.2917209940       10.7996484085       22.3007309047  TIP3      1355            0.0000000000
     17534      1502  TIP3      OH2           -14.3935303302       11.4882551130       35.2196822622  TIP3      1356            0.0000000000
     17535      1502  TIP3      H1            -15.3021556648       11.4347106481       34.8856893146  TIP3      1356            0.0000000000
     17536      1502  TIP3      H2            -13.8709177874       11.5975072247       34.3945831868  TIP3      1356            0.0000000000
     17537      1503  TIP3      OH2           -15.3543489444       15.3861820581       29.0646054247  TIP3      1357            0.0000000000
     17538      1503  TIP3      H1            -16.1176088927       14.7953993178       29.1952309054  TIP3      1357            0.0000000000
     17539      1503  TIP3      H2            -14.6463953299       14.8943791887       29.5417731008  TIP3      1357            0.0000000000
     17540      1504  TIP3      OH2           -26.0326975111       21.0435007749       21.6098130472  TIP3      1358            0.0000000000
     17541      1504  TIP3      H1            -25.3636327900       21.4872002201       22.1552420028  TIP3      1358            0.0000000000
     17542      1504  TIP3      H2            -25.4944814113       20.2895357522       21.3146161294  TIP3      1358            0.0000000000
     17543      1505  TIP3      OH2           -15.0658695759       24.4518989880       30.5741776953  TIP3      1359            0.0000000000
     17544      1505  TIP3      H1            -15.2963022432       25.0251740183       29.8174227774  TIP3      1359            0.0000000000
     17545      1505  TIP3      H2            -14.0921191586       24.5502721459       30.5416562219  TIP3      1359            0.0000000000
     17546      1506  TIP3      OH2           -27.1376694754        8.7513307174       29.8318593056  TIP3      1360            0.0000000000
     17547      1506  TIP3      H1            -27.1608915098        9.0114446612       28.8821122712  TIP3      1360            0.0000000000
     17548      1506  TIP3      H2            -27.5469321079        7.8685945974       29.7925185924  TIP3      1360            0.0000000000
     17549      1507  TIP3      OH2           -28.4042012009       22.4029041037       25.6854409537  TIP3      1361            0.0000000000
     17550      1507  TIP3      H1            -29.2892444163       22.7366916594       25.8810757765  TIP3      1361            0.0000000000
     17551      1507  TIP3      H2            -28.1792903126       22.9608289560       24.9125009370  TIP3      1361            0.0000000000
     17552      1508  TIP3      OH2           -28.7660609260       25.5755204239       37.3930614010  TIP3      1362            0.0000000000
     17553      1508  TIP3      H1            -28.4296800405       25.3709559354       38.2945300843  TIP3      1362            0.0000000000
     17554      1508  TIP3      H2            -28.4481964126       24.8248144776       36.8812035502  TIP3      1362            0.0000000000
     17555      1509  TIP3      OH2           -24.4173754653       23.8732911317       39.1083433953  TIP3      1363            0.0000000000
     17556      1509  TIP3      H1            -23.4866218504       23.6024923032       39.1355138084  TIP3      1363            0.0000000000
     17557      1509  TIP3      H2            -24.6327881136       23.6170026881       38.2009819211  TIP3      1363            0.0000000000
     17558      1510  TIP3      OH2           -18.0611191126       22.9344373551       37.5095385159  TIP3      1364            0.0000000000
     17559      1510  TIP3      H1            -18.3165454552       22.0619428298       37.9037059513  TIP3      1364            0.0000000000
     17560      1510  TIP3      H2            -17.1267727173       22.9465822245       37.8205441096  TIP3      1364            0.0000000000
     17561      1511  TIP3      OH2           -29.0167252831       18.5320905615       38.5634762516  TIP3      1365            0.0000000000
     17562      1511  TIP3      H1            -28.6524618723       17.7436005925       38.1175646421  TIP3      1365            0.0000000000
     17563      1511  TIP3      H2            -29.8322824016       18.1222566980       38.9019208300  TIP3      1365            0.0000000000
     17564      1512  TIP3      OH2           -22.6113063722       19.1853487620       37.0920010591  TIP3      1366            0.0000000000
     17565      1512  TIP3      H1            -22.9244361401       19.6796097762       36.3043999056  TIP3      1366            0.0000000000
     17566      1512  TIP3      H2            -22.7514916553       18.2336595360       36.8463934684  TIP3      1366            0.0000000000
     17567      1513  TIP3      OH2           -16.6894624166       18.9214653336       35.2947877484  TIP3      1367            0.0000000000
     17568      1513  TIP3      H1            -15.8210171910       19.3656253738       35.1782217715  TIP3      1367            0.0000000000
     17569      1513  TIP3      H2            -17.2335076614       19.7285939420       35.3917541994  TIP3      1367            0.0000000000
     17570      1514  TIP3      OH2           -27.9298632806       16.0679466848       37.5903713082  TIP3      1368            0.0000000000
     17571      1514  TIP3      H1            -27.2110867469       15.5048984752       37.2294177224  TIP3      1368            0.0000000000
     17572      1514  TIP3      H2            -27.7233934713       16.0055893184       38.5448828512  TIP3      1368            0.0000000000
     17573      1515  TIP3      OH2           -23.2697674375       17.4121010122       22.5816507177  TIP3      1369            0.0000000000
     17574      1515  TIP3      H1            -23.9662003540       17.0739808809       23.1677489820  TIP3      1369            0.0000000000
     17575      1515  TIP3      H2            -22.8472626858       16.6083857327       22.2534811579  TIP3      1369            0.0000000000
     17576      1516  TIP3      OH2           -23.8258873518       15.0141981686       34.8613727042  TIP3      1370            0.0000000000
     17577      1516  TIP3      H1            -24.6300921919       15.5811659105       34.8726804655  TIP3      1370            0.0000000000
     17578      1516  TIP3      H2            -23.3077577131       15.4064651018       34.1310119280  TIP3      1370            0.0000000000
     17579      1517  TIP3      OH2           -18.8539198031       18.0592228257       38.3824937774  TIP3      1371            0.0000000000
     17580      1517  TIP3      H1            -18.3959748627       17.5741238490       37.6674269167  TIP3      1371            0.0000000000
     17581      1517  TIP3      H2            -19.1589798167       17.3631215854       38.9756857416  TIP3      1371            0.0000000000
     17582      1518  TIP3      OH2           -13.2047122048       17.5328539068       19.7724463062  TIP3      1372            0.0000000000
     17583      1518  TIP3      H1            -14.0961750678       17.8200632469       19.4460463075  TIP3      1372            0.0000000000
     17584      1518  TIP3      H2            -12.6264816717       17.8614353978       19.0770014779  TIP3      1372            0.0000000000
     17585      1519  TIP3      OH2           -22.8092074760       12.7482763174       35.6403858820  TIP3      1373            0.0000000000
     17586      1519  TIP3      H1            -23.1931269423       12.0938985408       35.0270386812  TIP3      1373            0.0000000000
     17587      1519  TIP3      H2            -23.2276327391       13.5863035777       35.3309354877  TIP3      1373            0.0000000000
     17588      1520  TIP3      OH2           -23.4904046237       10.7256994636       33.3849110412  TIP3      1374            0.0000000000
     17589      1520  TIP3      H1            -22.9784195332       11.3267996987       32.7929856259  TIP3      1374            0.0000000000
     17590      1520  TIP3      H2            -24.4021870825       10.8920085399       33.0978616251  TIP3      1374            0.0000000000
     17591      1521  TIP3      OH2           -21.9386442737       16.6149502745       33.4654340928  TIP3      1375            0.0000000000
     17592      1521  TIP3      H1            -21.1075945542       17.0115292569       33.1718129131  TIP3      1375            0.0000000000
     17593      1521  TIP3      H2            -22.5754695850       17.3144153547       33.2400543951  TIP3      1375            0.0000000000
     17594      1522  TIP3      OH2           -17.7061023450       14.0741381976       38.7244672282  TIP3      1376            0.0000000000
     17595      1522  TIP3      H1            -17.7360244329       13.1983199486       39.1750852213  TIP3      1376            0.0000000000
     17596      1522  TIP3      H2            -16.7524722829       14.1958268570       38.5805177270  TIP3      1376            0.0000000000
     17597      1523  TIP3      OH2           -16.0914541526       17.3202164128       37.3021851556  TIP3      1377            0.0000000000
     17598      1523  TIP3      H1            -16.4237424549       17.8543763013       36.5365936008  TIP3      1377            0.0000000000
     17599      1523  TIP3      H2            -15.1798213218       17.1190448214       37.0205478377  TIP3      1377            0.0000000000
     17600      1524  TIP3      OH2           -25.8699146925       14.1406139992       37.1411555374  TIP3      1378            0.0000000000
     17601      1524  TIP3      H1            -26.2755657240       13.2671488473       37.3430149148  TIP3      1378            0.0000000000
     17602      1524  TIP3      H2            -24.9437826037       13.8695822284       37.0157446314  TIP3      1378            0.0000000000
     17603      1525  TIP3      OH2           -22.3246139065        8.3928367625       33.5299540168  TIP3      1379            0.0000000000
     17604      1525  TIP3      H1            -22.6239428368        9.3392160998       33.5643343298  TIP3      1379            0.0000000000
     17605      1525  TIP3      H2            -23.1879032575        7.9801282138       33.3726510999  TIP3      1379            0.0000000000
     17606      1526  TIP3      OH2           -21.1932612314       12.5596769486       37.8226664424  TIP3      1380            0.0000000000
     17607      1526  TIP3      H1            -21.9695824549       12.3947395261       38.4031653381  TIP3      1380            0.0000000000
     17608      1526  TIP3      H2            -21.7076595849       12.6204341021       36.9777191689  TIP3      1380            0.0000000000
     17609      1527  TIP3      OH2           -18.7551953852       12.0409380489       36.6427433722  TIP3      1381            0.0000000000
     17610      1527  TIP3      H1            -19.6947036684       11.9597890370       36.9038544621  TIP3      1381            0.0000000000
     17611      1527  TIP3      H2            -18.3521284257       11.4068673379       37.2762695747  TIP3      1381            0.0000000000
     17612      1528  TIP3      OH2           -17.7086035036       10.2083053777       38.2848033284  TIP3      1382            0.0000000000
     17613      1528  TIP3      H1            -17.2862794241        9.3423679893       38.4723538855  TIP3      1382            0.0000000000
     17614      1528  TIP3      H2            -17.5147759446       10.7285431001       39.0990616578  TIP3      1382            0.0000000000
     17615      1529  TIP3      OH2           -27.1670684953       11.7279391599       37.6748966918  TIP3      1383            0.0000000000
     17616      1529  TIP3      H1            -27.2354580283       10.8585410082       37.2272806890  TIP3      1383            0.0000000000
     17617      1529  TIP3      H2            -27.2151781141       11.4814460219       38.6379326470  TIP3      1383            0.0000000000
     17618      1530  TIP3      OH2           -22.7740371513        7.5760599497       36.1885345953  TIP3      1384            0.0000000000
     17619      1530  TIP3      H1            -22.0659101161        6.9144802046       36.1763229415  TIP3      1384            0.0000000000
     17620      1530  TIP3      H2            -22.7460098111        7.8566801582       35.2561064255  TIP3      1384            0.0000000000
     17621      1531  TIP3      OH2           -21.3804546203        8.9425264194       38.5757681029  TIP3      1385            0.0000000000
     17622      1531  TIP3      H1            -21.2651124658        8.4514663545       37.7532420500  TIP3      1385            0.0000000000
     17623      1531  TIP3      H2            -22.3240869343        9.2107800442       38.4785307305  TIP3      1385            0.0000000000
     17624      1532  TIP3      OH2            30.1029234818       25.7553516644       25.7790349141  TIP3      1386            0.0000000000
     17625      1532  TIP3      H1             29.2542645345       25.7894878350       26.2473214973  TIP3      1386            0.0000000000
     17626      1532  TIP3      H2             30.6783087410       25.5481985202       26.5279177857  TIP3      1386            0.0000000000
     17627      1533  TIP3      OH2           -29.2382188593       24.2552564095       28.3321757895  TIP3      1387            0.0000000000
     17628      1533  TIP3      H1            -29.3403815573       23.2801966701       28.4541669239  TIP3      1387            0.0000000000
     17629      1533  TIP3      H2            -28.7962046734       24.5267231653       29.1484391773  TIP3      1387            0.0000000000
     17630      1534  TIP3      OH2           -12.1813010574       24.5210126301       30.8154352199  TIP3      1388            0.0000000000
     17631      1534  TIP3      H1            -11.8603856151       24.8229006352       31.6792923886  TIP3      1388            0.0000000000
     17632      1534  TIP3      H2            -11.7676445795       25.1399509040       30.2009427940  TIP3      1388            0.0000000000
     17633      1535  TIP3      OH2           -12.3197631818       24.5392182193       33.9613330516  TIP3      1389            0.0000000000
     17634      1535  TIP3      H1            -12.6468544282       23.7524049162       33.4712503364  TIP3      1389            0.0000000000
     17635      1535  TIP3      H2            -12.0718591878       24.1187063752       34.8043758378  TIP3      1389            0.0000000000
     17636      1536  TIP3      OH2           -13.5805062645       20.2658452251       38.7113662042  TIP3      1390            0.0000000000
     17637      1536  TIP3      H1            -14.4361427854       20.5101046866       39.1302594242  TIP3      1390            0.0000000000
     17638      1536  TIP3      H2            -13.0993554045       21.1128033324       38.8476809468  TIP3      1390            0.0000000000
     17639      1537  TIP3      OH2           -12.5972453885       18.6514544337       24.0419512813  TIP3      1391            0.0000000000
     17640      1537  TIP3      H1            -11.6915165643       19.0286096301       24.0868357868  TIP3      1391            0.0000000000
     17641      1537  TIP3      H2            -12.5904013609       18.0435726377       24.8187456565  TIP3      1391            0.0000000000
     17642      1538  TIP3      OH2           -12.1298274969       16.5878704806       26.0213496508  TIP3      1392            0.0000000000
     17643      1538  TIP3      H1            -12.9292749754       16.1268677236       26.3588776666  TIP3      1392            0.0000000000
     17644      1538  TIP3      H2            -11.6536242097       16.8150272288       26.8527033199  TIP3      1392            0.0000000000
     17645      1539  TIP3      OH2           -12.6166577801       19.6784067258       30.4525629617  TIP3      1393            0.0000000000
     17646      1539  TIP3      H1            -11.9010047139       19.0047987239       30.4304629210  TIP3      1393            0.0000000000
     17647      1539  TIP3      H2            -12.1483127916       20.5064856144       30.2620079114  TIP3      1393            0.0000000000
     17648      1540  TIP3      OH2           -13.7100962007       22.4151544178       33.1067671953  TIP3      1394            0.0000000000
     17649      1540  TIP3      H1            -14.4477906261       23.0144278180       33.3170379647  TIP3      1394            0.0000000000
     17650      1540  TIP3      H2            -13.9831790920       22.0741938900       32.2310536206  TIP3      1394            0.0000000000
     17651      1541  TIP3      OH2           -12.5811199645       16.5494044836       22.2673928423  TIP3      1395            0.0000000000
     17652      1541  TIP3      H1            -12.8375053785       16.9580570915       21.4109200869  TIP3      1395            0.0000000000
     17653      1541  TIP3      H2            -12.4555041961       17.3506441055       22.8116969860  TIP3      1395            0.0000000000
     17654      1542  TIP3      OH2           -14.3357706716       15.2028969101       26.6124571758  TIP3      1396            0.0000000000
     17655      1542  TIP3      H1            -14.7414153154       14.3668891773       26.3301351497  TIP3      1396            0.0000000000
     17656      1542  TIP3      H2            -14.6329239834       15.2856305278       27.5508600750  TIP3      1396            0.0000000000
     17657      1543  TIP3      OH2           -29.3162033031       17.6417615120       30.6495102213  TIP3      1397            0.0000000000
     17658      1543  TIP3      H1            -29.4330525187       17.3715018816       29.7233774324  TIP3      1397            0.0000000000
     17659      1543  TIP3      H2            -28.3523170671       17.5055551147       30.7866189890  TIP3      1397            0.0000000000
     17660      1544  TIP3      OH2           -13.2369569747       17.3252700162       36.4025472760  TIP3      1398            0.0000000000
     17661      1544  TIP3      H1            -12.7732008851       16.4701455281       36.2359552119  TIP3      1398            0.0000000000
     17662      1544  TIP3      H2            -12.6392189782       17.9927654667       36.0232867741  TIP3      1398            0.0000000000
     17663      1545  TIP3      OH2           -12.2034524397       14.7685104961       36.4388657691  TIP3      1399            0.0000000000
     17664      1545  TIP3      H1            -13.0097342198       14.2281635301       36.5866402218  TIP3      1399            0.0000000000
     17665      1545  TIP3      H2            -11.4831507407       14.1344483228       36.6617148350  TIP3      1399            0.0000000000
     17666      1546  TIP3      OH2           -14.8443398700       13.1448556004       24.5435603861  TIP3      1400            0.0000000000
     17667      1546  TIP3      H1            -14.8251529743       12.2242336865       24.8291588259  TIP3      1400            0.0000000000
     17668      1546  TIP3      H2            -13.9134765498       13.2908930740       24.2938087466  TIP3      1400            0.0000000000
     17669      1547  TIP3      OH2           -13.6312203410       13.6702808933       30.1942823344  TIP3      1401            0.0000000000
     17670      1547  TIP3      H1            -12.6475586298       13.7131411223       30.2911357270  TIP3      1401            0.0000000000
     17671      1547  TIP3      H2            -13.8557091635       13.7825423310       31.1494786166  TIP3      1401            0.0000000000
     17672      1548  TIP3      OH2           -13.9095400109       14.3274196837       32.7644836733  TIP3      1402            0.0000000000
     17673      1548  TIP3      H1            -14.7537918783       14.6289607594       33.1709692174  TIP3      1402            0.0000000000
     17674      1548  TIP3      H2            -13.4412963633       15.1979159329       32.7219670390  TIP3      1402            0.0000000000
     17675      1549  TIP3      OH2           -29.2746693643       12.8087053284       36.3255815656  TIP3      1403            0.0000000000
     17676      1549  TIP3      H1            -28.4821125321       12.4542306281       36.7833685600  TIP3      1403            0.0000000000
     17677      1549  TIP3      H2            -29.9975664136       12.5155811467       36.9280605878  TIP3      1403            0.0000000000
     17678      1550  TIP3      OH2           -11.8853951321        8.6616106221       38.2805360260  TIP3      1404            0.0000000000
     17679      1550  TIP3      H1            -11.4223951759        7.9539655622       37.7761877506  TIP3      1404            0.0000000000
     17680      1550  TIP3      H2            -11.8587807732        9.4204018292       37.6552363585  TIP3      1404            0.0000000000
     17681      1551  TIP3      OH2           -13.9126340611        9.8425929104       24.9240743729  TIP3      1405            0.0000000000
     17682      1551  TIP3      H1            -13.7149269634        9.7588508152       25.8810699394  TIP3      1405            0.0000000000
     17683      1551  TIP3      H2            -14.7952275247        9.4068023958       24.8640708182  TIP3      1405            0.0000000000
     17684      1552  TIP3      OH2           -28.9227780811       10.9946078961       30.1856268681  TIP3      1406            0.0000000000
     17685      1552  TIP3      H1            -28.6207907237       10.0785883619       30.0242845814  TIP3      1406            0.0000000000
     17686      1552  TIP3      H2            -28.5293747069       11.4257430917       29.3993474206  TIP3      1406            0.0000000000
     17687      1553  TIP3      OH2           -29.8546012331       14.2378073762       30.9648834282  TIP3      1407            0.0000000000
     17688      1553  TIP3      H1            -29.4015382500       13.8993612399       30.1579769974  TIP3      1407            0.0000000000
     17689      1553  TIP3      H2            -29.0929406366       14.2522337970       31.5616344563  TIP3      1407            0.0000000000
     17690      1554  TIP3      OH2           -12.3405035160       10.8434493133       36.8472591734  TIP3      1408            0.0000000000
     17691      1554  TIP3      H1            -13.1510036011       11.1412274867       37.3237861826  TIP3      1408            0.0000000000
     17692      1554  TIP3      H2            -12.7408235272       10.4902294426       36.0327875910  TIP3      1408            0.0000000000
     17693      1555  TIP3      OH2            29.7463634728       10.1422235777       24.4456234773  TIP3      1409            0.0000000000
     17694      1555  TIP3      H1             29.6605826346       10.3276432311       25.4004901772  TIP3      1409            0.0000000000
     17695      1555  TIP3      H2             30.2054038194       10.9434117785       24.1367156832  TIP3      1409            0.0000000000
     17696      1556  TIP3      OH2           -15.1735812747       25.0234857310       26.9864776685  TIP3      1410            0.0000000000
     17697      1556  TIP3      H1            -14.5303176002       24.7257229059       26.3085263586  TIP3      1410            0.0000000000
     17698      1556  TIP3      H2            -14.6525582942       25.6874417716       27.4578643587  TIP3      1410            0.0000000000
     17699      1557  TIP3      OH2           -29.9545470789        9.5332361531       32.6481894706  TIP3      1411            0.0000000000
     17700      1557  TIP3      H1            -30.7496034101        9.9100680231       33.0800499333  TIP3      1411            0.0000000000
     17701      1557  TIP3      H2            -30.0065085783        9.9769102817       31.7758695730  TIP3      1411            0.0000000000
     17702      1558  TIP3      OH2           -27.8838576754       22.0410118764       36.9815483798  TIP3      1412            0.0000000000
     17703      1558  TIP3      H1            -28.6604716621       22.1874918677       36.4177090419  TIP3      1412            0.0000000000
     17704      1558  TIP3      H2            -28.3042340101       21.6542838272       37.7591609752  TIP3      1412            0.0000000000
     17705      1559  TIP3      OH2           -24.8123742382       23.6100959237       33.6947839477  TIP3      1413            0.0000000000
     17706      1559  TIP3      H1            -24.9308691421       24.5396567556       33.3973618018  TIP3      1413            0.0000000000
     17707      1559  TIP3      H2            -23.8621668173       23.4808562032       33.4824629418  TIP3      1413            0.0000000000
     17708      1560  TIP3      OH2           -20.5984857389       24.8189266396       36.3690342089  TIP3      1414            0.0000000000
     17709      1560  TIP3      H1            -20.5670460435       24.4978615599       37.2875968575  TIP3      1414            0.0000000000
     17710      1560  TIP3      H2            -19.6829095291       25.1254593278       36.2316592991  TIP3      1414            0.0000000000
     17711      1561  TIP3      OH2           -18.3671619150       26.3412510445       35.5232882117  TIP3      1415            0.0000000000
     17712      1561  TIP3      H1            -17.7382560108       25.6518612298       35.2543653501  TIP3      1415            0.0000000000
     17713      1561  TIP3      H2            -18.0075937971       26.6130879258       36.3996777856  TIP3      1415            0.0000000000
     17714      1562  TIP3      OH2           -13.3123650149        8.1652955671       34.9395847224  TIP3      1416            0.0000000000
     17715      1562  TIP3      H1            -14.0681736280        8.3695835950       34.3695987891  TIP3      1416            0.0000000000
     17716      1562  TIP3      H2            -13.0903326280        7.2507146024       34.6693491616  TIP3      1416            0.0000000000
     17717      1563  TIP3      OH2           -27.5613468809       26.6231096892       33.5301910568  TIP3      1417            0.0000000000
     17718      1563  TIP3      H1            -28.2500300931       27.0138066910       32.9678424270  TIP3      1417            0.0000000000
     17719      1563  TIP3      H2            -27.7093231839       27.0822011441       34.3774086415  TIP3      1417            0.0000000000
     17720      1564  TIP3      OH2           -25.0952570227       26.0754844390       32.6042608356  TIP3      1418            0.0000000000
     17721      1564  TIP3      H1            -26.0291637695       26.2816217657       32.8573334098  TIP3      1418            0.0000000000
     17722      1564  TIP3      H2            -24.9190970921       26.7519841812       31.9152439989  TIP3      1418            0.0000000000
     17723      1565  TIP3      OH2           -20.4754564449       25.8012484212       32.2254873515  TIP3      1419            0.0000000000
     17724      1565  TIP3      H1            -20.8694079994       26.0672914886       31.3807300623  TIP3      1419            0.0000000000
     17725      1565  TIP3      H2            -20.3439910468       26.6762112753       32.6472064646  TIP3      1419            0.0000000000
     17726      1566  TIP3      OH2           -18.2771101980       24.4198683069       33.2675388663  TIP3      1420            0.0000000000
     17727      1566  TIP3      H1            -19.1023144066       24.8366168308       32.9352327804  TIP3      1420            0.0000000000
     17728      1566  TIP3      H2            -17.6393054417       25.0141421904       32.8470027418  TIP3      1420            0.0000000000
     17729      1567  TIP3      OH2           -15.5217087111       26.2681898387       32.8745396377  TIP3      1421            0.0000000000
     17730      1567  TIP3      H1            -15.6081581297       27.2278043857       32.7177149515  TIP3      1421            0.0000000000
     17731      1567  TIP3      H2            -15.4599019849       25.9138365241       31.9722151059  TIP3      1421            0.0000000000
     17732      1568  TIP3      OH2           -27.5867855693       25.0624577250       30.5951459199  TIP3      1422            0.0000000000
     17733      1568  TIP3      H1            -27.5691440586       24.4271766575       31.3409662890  TIP3      1422            0.0000000000
     17734      1568  TIP3      H2            -26.9568326593       24.6268427091       29.9784027282  TIP3      1422            0.0000000000
     17735      1569  TIP3      OH2           -25.9106946216       23.6759948149       28.9857252908  TIP3      1423            0.0000000000
     17736      1569  TIP3      H1            -26.0669604646       22.7796852371       29.3234633992  TIP3      1423            0.0000000000
     17737      1569  TIP3      H2            -25.0121936919       23.8503844123       29.3329521659  TIP3      1423            0.0000000000
     17738      1570  TIP3      OH2           -23.4787491648       23.9104719716       30.2552709344  TIP3      1424            0.0000000000
     17739      1570  TIP3      H1            -23.2030524592       22.9684546523       30.2329861344  TIP3      1424            0.0000000000
     17740      1570  TIP3      H2            -23.2812511002       24.1415372643       31.1846370948  TIP3      1424            0.0000000000
     17741      1571  TIP3      OH2           -20.3646196112        9.5890063450       28.3979625454  TIP3      1425            0.0000000000
     17742      1571  TIP3      H1            -21.1227079268        9.1786203195       28.8742920734  TIP3      1425            0.0000000000
     17743      1571  TIP3      H2            -19.6577062219        8.9546493001       28.5573795667  TIP3      1425            0.0000000000
     17744      1572  TIP3      OH2           -14.5702560874        7.8552300626       29.0826258911  TIP3      1426            0.0000000000
     17745      1572  TIP3      H1            -13.8842821416        8.3757360437       28.5975234327  TIP3      1426            0.0000000000
     17746      1572  TIP3      H2            -15.2657639216        8.5145994002       29.2174577122  TIP3      1426            0.0000000000
     17747      1573  TIP3      OH2           -12.8874199744        9.1272091000       27.3969204291  TIP3      1427            0.0000000000
     17748      1573  TIP3      H1            -12.2412516897        8.5135369829       26.9796534106  TIP3      1427            0.0000000000
     17749      1573  TIP3      H2            -12.2720964454        9.8524624160       27.7008259614  TIP3      1427            0.0000000000
     17750      1574  TIP3      OH2           -27.7754925251        7.9109116007       27.2268755093  TIP3      1428            0.0000000000
     17751      1574  TIP3      H1            -28.4943652623        7.7163001128       26.6034132617  TIP3      1428            0.0000000000
     17752      1574  TIP3      H2            -27.3167289877        7.0491259208       27.3039743696  TIP3      1428            0.0000000000
     17753      1575  TIP3      OH2           -29.0383925280        8.4118297070       22.7049166866  TIP3      1429            0.0000000000
     17754      1575  TIP3      H1            -28.3455099956        9.0888244520       22.4920141340  TIP3      1429            0.0000000000
     17755      1575  TIP3      H2            -29.4826422140        8.8370876506       23.4780117950  TIP3      1429            0.0000000000
     17756      1576  TIP3      OH2           -23.0698715178        7.5588581759       26.8252134064  TIP3      1430            0.0000000000
     17757      1576  TIP3      H1            -22.1097242464        7.6427876051       26.8769860344  TIP3      1430            0.0000000000
     17758      1576  TIP3      H2            -23.3850768887        8.1369157114       27.5418381992  TIP3      1430            0.0000000000
     17759      1577  TIP3      OH2           -17.3451534398        8.9248676924       28.0205588642  TIP3      1431            0.0000000000
     17760      1577  TIP3      H1            -17.5577054929        8.9112756241       27.0821993714  TIP3      1431            0.0000000000
     17761      1577  TIP3      H2            -17.7316278562        8.0713061969       28.3225046447  TIP3      1431            0.0000000000
     17762      1578  TIP3      OH2           -16.2140302406        8.3590274983       24.1880900040  TIP3      1432            0.0000000000
     17763      1578  TIP3      H1            -16.9774688882        8.9685068280       24.3214059181  TIP3      1432            0.0000000000
     17764      1578  TIP3      H2            -16.5964257165        7.5023764973       24.4950491005  TIP3      1432            0.0000000000
     17765      1579  TIP3      OH2           -28.4336714749       24.3250048865       23.5804234969  TIP3      1433            0.0000000000
     17766      1579  TIP3      H1            -29.1989645055       24.5813347928       23.0325291090  TIP3      1433            0.0000000000
     17767      1579  TIP3      H2            -28.0316038625       25.2004490995       23.7365474896  TIP3      1433            0.0000000000
     17768      1580  TIP3      OH2           -27.2927093967       10.1948915132       21.6968623725  TIP3      1434            0.0000000000
     17769      1580  TIP3      H1            -26.9053810892        9.8217294168       20.8912465390  TIP3      1434            0.0000000000
     17770      1580  TIP3      H2            -26.5918738209       10.8174614225       21.9898506092  TIP3      1434            0.0000000000
     17771      1581  TIP3      OH2           -21.6099570424       10.3071644444       23.4846879510  TIP3      1435            0.0000000000
     17772      1581  TIP3      H1            -21.2056788658        9.8301253815       24.2394103226  TIP3      1435            0.0000000000
     17773      1581  TIP3      H2            -21.4669024607       11.2321735333       23.8108781720  TIP3      1435            0.0000000000
     17774      1582  TIP3      OH2           -13.4001857794       24.5312583769       24.9448118067  TIP3      1436            0.0000000000
     17775      1582  TIP3      H1            -13.2963454191       23.8384017859       24.2681137748  TIP3      1436            0.0000000000
     17776      1582  TIP3      H2            -13.4672824256       25.3284941055       24.3687449723  TIP3      1436            0.0000000000
     17777      1583  TIP3      OH2           -27.6194119547        9.2212890067       36.2303365980  TIP3      1437            0.0000000000
     17778      1583  TIP3      H1            -28.2504891084        8.4801567659       36.3452041937  TIP3      1437            0.0000000000
     17779      1583  TIP3      H2            -26.8199530143        8.8255749135       36.6632311120  TIP3      1437            0.0000000000
     17780      1584  TIP3      OH2           -25.9998775725        7.3959895455       37.1949854172  TIP3      1438            0.0000000000
     17781      1584  TIP3      H1            -25.0893550935        7.7665314173       37.1507990655  TIP3      1438            0.0000000000
     17782      1584  TIP3      H2            -26.1091864861        7.3553000304       38.1579467850  TIP3      1438            0.0000000000
     17783      1585  TIP3      OH2           -17.2623486408        7.6185267194       38.5784993068  TIP3      1439            0.0000000000
     17784      1585  TIP3      H1            -17.0752198879        7.2103698622       39.4498250037  TIP3      1439            0.0000000000
     17785      1585  TIP3      H2            -16.4156689929        7.4331367236       38.1291798510  TIP3      1439            0.0000000000
     17786      1586  TIP3      OH2           -13.9523475438       23.6865700869       36.8398181513  TIP3      1440            0.0000000000
     17787      1586  TIP3      H1            -14.7065749967       23.7472991476       36.2042207760  TIP3      1440            0.0000000000
     17788      1586  TIP3      H2            -14.0622191000       24.5497265143       37.2892021140  TIP3      1440            0.0000000000
     17789      1587  TIP3      OH2             0.9407919372       17.8402353659       26.9192759875  TIP3      1441            0.0000000000
     17790      1587  TIP3      H1              0.9377254669       18.6916259713       27.3943610710  TIP3      1441            0.0000000000
     17791      1587  TIP3      H2              0.0997798436       17.8535773368       26.4313391563  TIP3      1441            0.0000000000
     17792      1588  TIP3      OH2            -0.3184154975       16.4038948982       30.0582035381  TIP3      1442            0.0000000000
     17793      1588  TIP3      H1             -0.2618368587       16.1386967069       30.9989023383  TIP3      1442            0.0000000000
     17794      1588  TIP3      H2             -1.2036189030       16.0801350146       29.8005970971  TIP3      1442            0.0000000000
     17795      1589  TIP3      OH2            -8.5843017764       16.5759513278       31.6219383788  TIP3      1443            0.0000000000
     17796      1589  TIP3      H1             -8.5196489477       15.7049714749       32.0427189924  TIP3      1443            0.0000000000
     17797      1589  TIP3      H2             -8.1727897665       17.1370604302       32.3138718453  TIP3      1443            0.0000000000
     17798      1590  TIP3      OH2             2.6102949145       19.7312059791       28.8557473962  TIP3      1444            0.0000000000
     17799      1590  TIP3      H1              2.7186720957       19.0821745966       29.5668895005  TIP3      1444            0.0000000000
     17800      1590  TIP3      H2              2.7164765262       20.5707829826       29.3279498561  TIP3      1444            0.0000000000
     17801      1591  TIP3      OH2            -7.2560387080       21.1932615490       29.7577235838  TIP3      1445            0.0000000000
     17802      1591  TIP3      H1             -7.5883991277       20.2757213096       29.6940272912  TIP3      1445            0.0000000000
     17803      1591  TIP3      H2             -6.3229231345       20.9919658683       29.9603178347  TIP3      1445            0.0000000000
     17804      1592  TIP3      OH2           -10.5860965693       14.2525947081       25.5560428274  TIP3      1446            0.0000000000
     17805      1592  TIP3      H1            -10.5205590300       15.2154917579       25.6552737611  TIP3      1446            0.0000000000
     17806      1592  TIP3      H2            -11.5251152310       14.1232939902       25.7464956921  TIP3      1446            0.0000000000
     17807      1593  TIP3      OH2           -10.6249722102       16.5077571458       28.2688270827  TIP3      1447            0.0000000000
     17808      1593  TIP3      H1            -10.1751602810       15.6469968938       28.3920945353  TIP3      1447            0.0000000000
     17809      1593  TIP3      H2             -9.8738483717       17.1207222866       28.2261457574  TIP3      1447            0.0000000000
     17810      1594  TIP3      OH2             0.3947054026       25.3022546381       28.7688570205  TIP3      1448            0.0000000000
     17811      1594  TIP3      H1              0.9617225053       24.6684206463       28.2588380606  TIP3      1448            0.0000000000
     17812      1594  TIP3      H2              0.0421882895       24.6706216342       29.3977372811  TIP3      1448            0.0000000000
     17813      1595  TIP3      OH2            -2.5686458388       19.2965705953       31.3138725672  TIP3      1449            0.0000000000
     17814      1595  TIP3      H1             -2.2080269204       19.3083572160       30.4174642646  TIP3      1449            0.0000000000
     17815      1595  TIP3      H2             -1.7559803184       19.5017892362       31.8296590266  TIP3      1449            0.0000000000
     17816      1596  TIP3      OH2             6.2106084093       10.6806124236       30.8305057398  TIP3      1450            0.0000000000
     17817      1596  TIP3      H1              6.4221920361       11.2233348656       31.6164144383  TIP3      1450            0.0000000000
     17818      1596  TIP3      H2              7.0782933908       10.6277829825       30.3995049186  TIP3      1450            0.0000000000
     17819      1597  TIP3      OH2             1.3064281820       13.8523843272       31.3863983828  TIP3      1451            0.0000000000
     17820      1597  TIP3      H1              1.3457079091       12.8810606027       31.3268810011  TIP3      1451            0.0000000000
     17821      1597  TIP3      H2              1.3428743692       14.0561268586       30.4300069437  TIP3      1451            0.0000000000
     17822      1598  TIP3      OH2            -5.6198708921       11.4288113961       27.9161244427  TIP3      1452            0.0000000000
     17823      1598  TIP3      H1             -5.6663320464       12.3769730816       27.6717923682  TIP3      1452            0.0000000000
     17824      1598  TIP3      H2             -6.3126327338       11.0654432811       27.3230984063  TIP3      1452            0.0000000000
     17825      1599  TIP3      OH2             1.8199917159       11.7426831634       26.7545842476  TIP3      1453            0.0000000000
     17826      1599  TIP3      H1              2.3651683720       11.5376811201       27.5411017649  TIP3      1453            0.0000000000
     17827      1599  TIP3      H2              1.9228534589       12.6970595467       26.6893613135  TIP3      1453            0.0000000000
     17828      1600  TIP3      OH2            -9.0280315352       14.4179865407       29.0595059032  TIP3      1454            0.0000000000
     17829      1600  TIP3      H1             -8.4152708741       14.0066646389       29.6979694360  TIP3      1454            0.0000000000
     17830      1600  TIP3      H2             -8.8445778285       13.8741264515       28.2604294708  TIP3      1454            0.0000000000
     17831      1601  TIP3      OH2            -4.5738980339       15.8384965737       28.3647451593  TIP3      1455            0.0000000000
     17832      1601  TIP3      H1             -3.7192944780       15.4167666489       28.5798184671  TIP3      1455            0.0000000000
     17833      1601  TIP3      H2             -5.0899592878       15.0663353685       28.0545932143  TIP3      1455            0.0000000000
     17834      1602  TIP3      OH2             6.4298146661       12.0532161709       33.3526730340  TIP3      1456            0.0000000000
     17835      1602  TIP3      H1              6.0919571904       12.9390020762       33.0835461265  TIP3      1456            0.0000000000
     17836      1602  TIP3      H2              6.9215921483       12.3003278289       34.1525109643  TIP3      1456            0.0000000000
     17837      1603  TIP3      OH2            -6.6976072570       10.9634934484       32.3966337577  TIP3      1457            0.0000000000
     17838      1603  TIP3      H1             -7.2659674003       11.3393696256       31.6938551620  TIP3      1457            0.0000000000
     17839      1603  TIP3      H2             -7.1926115185       11.2758595871       33.1819303155  TIP3      1457            0.0000000000
     17840      1604  TIP3      OH2            -0.1211802966       20.6266784360       25.7194451852  TIP3      1458            0.0000000000
     17841      1604  TIP3      H1             -0.2039455386       20.4185099082       24.7655706399  TIP3      1458            0.0000000000
     17842      1604  TIP3      H2              0.1341717085       21.5639055192       25.6646644441  TIP3      1458            0.0000000000
     17843      1605  TIP3      OH2            -4.9451014494       18.3696357722       32.0314798671  TIP3      1459            0.0000000000
     17844      1605  TIP3      H1             -5.4631777261       19.0372219388       32.5302695874  TIP3      1459            0.0000000000
     17845      1605  TIP3      H2             -4.1300696408       18.8752057363       31.8069509567  TIP3      1459            0.0000000000
     17846      1606  TIP3      OH2             3.8088956354       11.9510467209       28.9304962655  TIP3      1460            0.0000000000
     17847      1606  TIP3      H1              4.6144629712       11.6209495270       28.5021954823  TIP3      1460            0.0000000000
     17848      1606  TIP3      H2              4.2116477626       12.3435786950       29.7404439880  TIP3      1460            0.0000000000
     17849      1607  TIP3      OH2            -7.2162376810       12.7379558995       30.2812310295  TIP3      1461            0.0000000000
     17850      1607  TIP3      H1             -6.5764425662       13.2574707998       30.8169671016  TIP3      1461            0.0000000000
     17851      1607  TIP3      H2             -6.6509472544       12.4868950309       29.5327545437  TIP3      1461            0.0000000000
     17852      1608  TIP3      OH2            -6.1419780606       20.4542900521       33.2590557753  TIP3      1462            0.0000000000
     17853      1608  TIP3      H1             -6.3439041355       21.1975876167       32.6659274134  TIP3      1462            0.0000000000
     17854      1608  TIP3      H2             -6.9946703606       20.4125948361       33.7638469668  TIP3      1462            0.0000000000
     17855      1609  TIP3      OH2           -10.0518026314       19.7735535646       23.9153009113  TIP3      1463            0.0000000000
     17856      1609  TIP3      H1            -10.3227192935       20.3633910228       23.1978862728  TIP3      1463            0.0000000000
     17857      1609  TIP3      H2            -10.0007272559       20.3778925975       24.6956866488  TIP3      1463            0.0000000000
     17858      1610  TIP3      OH2             3.5040558588       21.6198555019       31.0576974824  TIP3      1464            0.0000000000
     17859      1610  TIP3      H1              2.5466296989       21.8076875328       31.1941500615  TIP3      1464            0.0000000000
     17860      1610  TIP3      H2              3.7274528995       22.3940563677       30.5148127377  TIP3      1464            0.0000000000
     17861      1611  TIP3      OH2             3.5119186103        9.9877015613       32.0175004665  TIP3      1465            0.0000000000
     17862      1611  TIP3      H1              2.7259495912       10.2868156623       31.5171357784  TIP3      1465            0.0000000000
     17863      1611  TIP3      H2              4.2391288933       10.3451474890       31.4790481385  TIP3      1465            0.0000000000
     17864      1612  TIP3      OH2            -3.7344090039        7.8684091299       30.0184805807  TIP3      1466            0.0000000000
     17865      1612  TIP3      H1             -4.1567477488        7.0228153483       30.2470438248  TIP3      1466            0.0000000000
     17866      1612  TIP3      H2             -4.5121334056        8.4692292966       30.1622711452  TIP3      1466            0.0000000000
     17867      1613  TIP3      OH2             2.0018817364       23.4148734699       27.8303998987  TIP3      1467            0.0000000000
     17868      1613  TIP3      H1              1.8403646648       22.6800156698       27.2222952398  TIP3      1467            0.0000000000
     17869      1613  TIP3      H2              2.7552619014       23.8719370061       27.3848861991  TIP3      1467            0.0000000000
     17870      1614  TIP3      OH2             3.2498688879       21.2589591661       25.9558052837  TIP3      1468            0.0000000000
     17871      1614  TIP3      H1              3.2828990997       20.5276348498       25.3086250506  TIP3      1468            0.0000000000
     17872      1614  TIP3      H2              2.9897468027       20.7771064067       26.7541003310  TIP3      1468            0.0000000000
     17873      1615  TIP3      OH2             4.4814797437       20.0100938852       34.6067357400  TIP3      1469            0.0000000000
     17874      1615  TIP3      H1              4.5840474593       19.2918919926       33.9401447658  TIP3      1469            0.0000000000
     17875      1615  TIP3      H2              4.7602992675       20.7934084500       34.0823004099  TIP3      1469            0.0000000000
     17876      1616  TIP3      OH2            -0.5499123148       17.1823816531       24.4358375262  TIP3      1470            0.0000000000
     17877      1616  TIP3      H1             -1.1045446403       17.9379039867       24.1465549365  TIP3      1470            0.0000000000
     17878      1616  TIP3      H2              0.2584753145       17.2448340194       23.8841445084  TIP3      1470            0.0000000000
     17879      1617  TIP3      OH2            -0.6228225257       15.8351575390       21.5019599267  TIP3      1471            0.0000000000
     17880      1617  TIP3      H1              0.0341036682       16.1983273298       22.1121500133  TIP3      1471            0.0000000000
     17881      1617  TIP3      H2             -0.4929241323       14.8920441175       21.6200622230  TIP3      1471            0.0000000000
     17882      1618  TIP3      OH2             6.5835165128       16.4233081489       32.6321701964  TIP3      1472            0.0000000000
     17883      1618  TIP3      H1              5.9732747652       17.1848792089       32.6197889236  TIP3      1472            0.0000000000
     17884      1618  TIP3      H2              7.2067821592       16.7034009388       31.9228830001  TIP3      1472            0.0000000000
     17885      1619  TIP3      OH2             3.0744233387       16.8895355424       25.5539090288  TIP3      1473            0.0000000000
     17886      1619  TIP3      H1              2.2836610255       17.2679398555       26.0089388148  TIP3      1473            0.0000000000
     17887      1619  TIP3      H2              3.5907178832       16.5784136839       26.3198670693  TIP3      1473            0.0000000000
     17888      1620  TIP3      OH2             2.5251167854       15.4907075216       34.6449911835  TIP3      1474            0.0000000000
     17889      1620  TIP3      H1              2.9479183330       16.3391324495       34.8318877045  TIP3      1474            0.0000000000
     17890      1620  TIP3      H2              1.7531700896       15.8011706508       34.1308713879  TIP3      1474            0.0000000000
     17891      1621  TIP3      OH2            -5.9363946416       17.7001414516       27.1807636758  TIP3      1475            0.0000000000
     17892      1621  TIP3      H1             -6.4852666493       17.1643724719       26.5724046691  TIP3      1475            0.0000000000
     17893      1621  TIP3      H2             -5.3018365139       17.0261710375       27.5141052930  TIP3      1475            0.0000000000
     17894      1622  TIP3      OH2            -4.4636865908       20.8307117908       29.8737557459  TIP3      1476            0.0000000000
     17895      1622  TIP3      H1             -4.2957263880       20.7148616561       28.9269552451  TIP3      1476            0.0000000000
     17896      1622  TIP3      H2             -3.8474749569       20.2166293341       30.3106137015  TIP3      1476            0.0000000000
     17897      1623  TIP3      OH2            -5.5750054796       16.1296905904       30.8889379205  TIP3      1477            0.0000000000
     17898      1623  TIP3      H1             -5.3219014912       16.2138876153       29.9423829537  TIP3      1477            0.0000000000
     17899      1623  TIP3      H2             -5.1997776206       16.9571999518       31.2868837015  TIP3      1477            0.0000000000
     17900      1624  TIP3      OH2             0.9333391090       22.1016529663       31.4352392237  TIP3      1478            0.0000000000
     17901      1624  TIP3      H1              0.6020132887       22.8268148769       31.9905597580  TIP3      1478            0.0000000000
     17902      1624  TIP3      H2              0.5907616762       21.3268627153       31.9259960233  TIP3      1478            0.0000000000
     17903      1625  TIP3      OH2            -4.4245569445       20.9296912788       35.2914549037  TIP3      1479            0.0000000000
     17904      1625  TIP3      H1             -5.0917234684       21.4036007857       35.8413907878  TIP3      1479            0.0000000000
     17905      1625  TIP3      H2             -4.9596672142       20.7275127819       34.4915962557  TIP3      1479            0.0000000000
     17906      1626  TIP3      OH2             1.7596348272       16.5898646508       23.0618975995  TIP3      1480            0.0000000000
     17907      1626  TIP3      H1              2.2873534574       16.7058069284       23.8881436880  TIP3      1480            0.0000000000
     17908      1626  TIP3      H2              2.3650632297       16.9191901587       22.3768877548  TIP3      1480            0.0000000000
     17909      1627  TIP3      OH2            -7.7337041088       17.5981580228       33.9719201957  TIP3      1481            0.0000000000
     17910      1627  TIP3      H1             -7.4266239247       18.4849168115       34.2418983496  TIP3      1481            0.0000000000
     17911      1627  TIP3      H2             -8.0078476945       17.2399306214       34.8330114498  TIP3      1481            0.0000000000
     17912      1628  TIP3      OH2            -0.2523537754       23.5906898340       25.6863280050  TIP3      1482            0.0000000000
     17913      1628  TIP3      H1             -1.0772357718       23.6225852637       26.1849758537  TIP3      1482            0.0000000000
     17914      1628  TIP3      H2             -0.5887729524       23.4814819551       24.7653295900  TIP3      1482            0.0000000000
     17915      1629  TIP3      OH2            -6.2094824478       22.5195582545       36.5656298222  TIP3      1483            0.0000000000
     17916      1629  TIP3      H1             -6.3564135889       22.9126419423       35.6753538796  TIP3      1483            0.0000000000
     17917      1629  TIP3      H2             -7.1097552033       22.1696619421       36.7483065315  TIP3      1483            0.0000000000
     17918      1630  TIP3      OH2             5.4935422428        8.1183372615       23.2593111386  TIP3      1484            0.0000000000
     17919      1630  TIP3      H1              4.5466037731        8.2850046235       23.5145656819  TIP3      1484            0.0000000000
     17920      1630  TIP3      H2              5.7058588554        8.9455784600       22.8009936048  TIP3      1484            0.0000000000
     17921      1631  TIP3      OH2            -7.2598511368       16.4243398100       25.0337484341  TIP3      1485            0.0000000000
     17922      1631  TIP3      H1             -7.2067442177       17.3256611052       24.6245270364  TIP3      1485            0.0000000000
     17923      1631  TIP3      H2             -7.7781466182       15.9788109768       24.3486728984  TIP3      1485            0.0000000000
     17924      1632  TIP3      OH2             7.5719310700       23.5222418129       21.7978705824  TIP3      1486            0.0000000000
     17925      1632  TIP3      H1              7.4516022467       23.8089920192       20.8611310020  TIP3      1486            0.0000000000
     17926      1632  TIP3      H2              8.2062383078       22.7998451298       21.6291628468  TIP3      1486            0.0000000000
     17927      1633  TIP3      OH2           -10.4813317797       19.1536169714       33.6449846965  TIP3      1487            0.0000000000
     17928      1633  TIP3      H1            -11.1107548171       18.8663152123       32.9733551720  TIP3      1487            0.0000000000
     17929      1633  TIP3      H2            -10.0904835254       18.2750653310       33.8428914310  TIP3      1487            0.0000000000
     17930      1634  TIP3      OH2           -10.4636873757       21.8399754943       30.2954390047  TIP3      1488            0.0000000000
     17931      1634  TIP3      H1             -9.6835348632       21.2914490071       30.4906753946  TIP3      1488            0.0000000000
     17932      1634  TIP3      H2            -10.4057393072       22.5113002244       30.9967471064  TIP3      1488            0.0000000000
     17933      1635  TIP3      OH2             7.2135497674       22.7148245186       36.2920148373  TIP3      1489            0.0000000000
     17934      1635  TIP3      H1              7.1701771905       21.8471582473       36.7157796285  TIP3      1489            0.0000000000
     17935      1635  TIP3      H2              6.3212107108       23.0617774584       36.5407226712  TIP3      1489            0.0000000000
     17936      1636  TIP3      OH2            -1.8429403510       21.9510141016       35.1615027508  TIP3      1490            0.0000000000
     17937      1636  TIP3      H1             -1.8202007080       22.6053922877       35.8777336805  TIP3      1490            0.0000000000
     17938      1636  TIP3      H2             -2.7631346534       21.6127274302       35.2207198925  TIP3      1490            0.0000000000
     17939      1637  TIP3      OH2            -1.6581942016       26.0810753521       24.2424477819  TIP3      1491            0.0000000000
     17940      1637  TIP3      H1             -0.8677180429       25.8731234266       23.7126428207  TIP3      1491            0.0000000000
     17941      1637  TIP3      H2             -1.3382262726       26.7131891814       24.9152924281  TIP3      1491            0.0000000000
     17942      1638  TIP3      OH2            -7.6581768183       24.8945584348       26.8118288708  TIP3      1492            0.0000000000
     17943      1638  TIP3      H1             -7.2542266930       24.4808462336       27.6069403592  TIP3      1492            0.0000000000
     17944      1638  TIP3      H2             -8.5008693885       24.4164681748       26.7738646895  TIP3      1492            0.0000000000
     17945      1639  TIP3      OH2             1.3963934776       25.6106427233       24.6660730831  TIP3      1493            0.0000000000
     17946      1639  TIP3      H1              0.7857202213       25.1791451563       25.3000211949  TIP3      1493            0.0000000000
     17947      1639  TIP3      H2              1.9888482554       24.8608395172       24.5119523825  TIP3      1493            0.0000000000
     17948      1640  TIP3      OH2             4.1585653022       13.7121610810       36.6704560202  TIP3      1494            0.0000000000
     17949      1640  TIP3      H1              3.6849776517       14.1709762426       35.9589799388  TIP3      1494            0.0000000000
     17950      1640  TIP3      H2              4.2352762000       12.8122250775       36.3240343917  TIP3      1494            0.0000000000
     17951      1641  TIP3      OH2            -8.3046325939       20.3818159059       34.7352164922  TIP3      1495            0.0000000000
     17952      1641  TIP3      H1             -8.3182531867       20.2380024182       35.7040230917  TIP3      1495            0.0000000000
     17953      1641  TIP3      H2             -9.1921638929       20.0773597517       34.4534825153  TIP3      1495            0.0000000000
     17954      1642  TIP3      OH2            -5.8165328935        9.2267433073       30.6945228446  TIP3      1496            0.0000000000
     17955      1642  TIP3      H1             -6.6191419511        9.3978508616       30.1793074144  TIP3      1496            0.0000000000
     17956      1642  TIP3      H2             -6.0224281029        9.7065752163       31.5276167973  TIP3      1496            0.0000000000
     17957      1643  TIP3      OH2            -0.7211419162        8.5660632040       33.7514986439  TIP3      1497            0.0000000000
     17958      1643  TIP3      H1             -0.2302115060        8.2591657184       34.5463325933  TIP3      1497            0.0000000000
     17959      1643  TIP3      H2             -1.6422009305        8.5925248162       34.0782814514  TIP3      1497            0.0000000000
     17960      1644  TIP3      OH2             2.0378368696       12.8375013720       34.4299779999  TIP3      1498            0.0000000000
     17961      1644  TIP3      H1              1.4784237523       12.6626249609       35.2175135816  TIP3      1498            0.0000000000
     17962      1644  TIP3      H2              2.2048429431       13.7975773510       34.5441683834  TIP3      1498            0.0000000000
     17963      1645  TIP3      OH2            -1.5495824480       11.4485093083       21.4737185694  TIP3      1499            0.0000000000
     17964      1645  TIP3      H1             -1.8408274387       11.1759912583       22.3815439670  TIP3      1499            0.0000000000
     17965      1645  TIP3      H2             -1.5922258408       10.5872680250       21.0438031752  TIP3      1499            0.0000000000
     17966      1646  TIP3      OH2            -5.3755278069       13.7576152595       31.9452546039  TIP3      1500            0.0000000000
     17967      1646  TIP3      H1             -6.2030385465       13.7869778870       32.4742975466  TIP3      1500            0.0000000000
     17968      1646  TIP3      H2             -5.3897321080       14.6647800602       31.5555752902  TIP3      1500            0.0000000000
     17969      1647  TIP3      OH2            -6.0997623304       13.9091519079       27.0349756785  TIP3      1501            0.0000000000
     17970      1647  TIP3      H1             -7.0563168146       13.7473118078       26.8501044304  TIP3      1501            0.0000000000
     17971      1647  TIP3      H2             -5.7277471723       14.0529898726       26.1398118391  TIP3      1501            0.0000000000
     17972      1648  TIP3      OH2            -0.2367112847       14.9138081831       26.0562385271  TIP3      1502            0.0000000000
     17973      1648  TIP3      H1             -0.3721489207       15.7851271658       25.6122543888  TIP3      1502            0.0000000000
     17974      1648  TIP3      H2              0.2700031335       14.4570354649       25.3484573324  TIP3      1502            0.0000000000
     17975      1649  TIP3      OH2            -1.0575597953       14.8521098190       36.9827875750  TIP3      1503            0.0000000000
     17976      1649  TIP3      H1             -1.4919510771       14.0749588047       37.3866542555  TIP3      1503            0.0000000000
     17977      1649  TIP3      H2             -0.2243107512       14.8664873665       37.4891378186  TIP3      1503            0.0000000000
     17978      1650  TIP3      OH2             1.2201475366       14.2944438237       28.5797378388  TIP3      1504            0.0000000000
     17979      1650  TIP3      H1              0.8099611993       15.1470266952       28.3350882982  TIP3      1504            0.0000000000
     17980      1650  TIP3      H2              0.7592054236       13.7297707222       27.9419873442  TIP3      1504            0.0000000000
     17981      1651  TIP3      OH2            -7.9316801635       13.8162646364       32.9102706995  TIP3      1505            0.0000000000
     17982      1651  TIP3      H1             -7.6052991119       14.3931607648       33.6263507857  TIP3      1505            0.0000000000
     17983      1651  TIP3      H2             -8.3211562488       13.0656047092       33.4181134794  TIP3      1505            0.0000000000
     17984      1652  TIP3      OH2           -11.1251477629       11.0103939578       27.9910831523  TIP3      1506            0.0000000000
     17985      1652  TIP3      H1            -10.3306771265       10.9726573674       28.5485098837  TIP3      1506            0.0000000000
     17986      1652  TIP3      H2            -10.8011751276       11.3789778321       27.1451492175  TIP3      1506            0.0000000000
     17987      1653  TIP3      OH2           -10.0949713942       12.0322196359       22.9604013958  TIP3      1507            0.0000000000
     17988      1653  TIP3      H1             -9.4027111798       12.6555253816       23.2206711063  TIP3      1507            0.0000000000
     17989      1653  TIP3      H2            -10.8972631826       12.5546868563       23.1170440448  TIP3      1507            0.0000000000
     17990      1654  TIP3      OH2             0.0579170713       15.7621152523       32.8022169837  TIP3      1508            0.0000000000
     17991      1654  TIP3      H1              0.6133004934       15.0592092576       32.3824382372  TIP3      1508            0.0000000000
     17992      1654  TIP3      H2             -0.5082075896       15.2102616705       33.3877926851  TIP3      1508            0.0000000000
     17993      1655  TIP3      OH2            -2.8237667418       11.4029023865       27.8779894944  TIP3      1509            0.0000000000
     17994      1655  TIP3      H1             -3.8023967394       11.4204660821       27.9490233443  TIP3      1509            0.0000000000
     17995      1655  TIP3      H2             -2.5734294666       10.9591783739       28.7118141675  TIP3      1509            0.0000000000
     17996      1656  TIP3      OH2            -8.5684780174       12.9845801388       26.9063901218  TIP3      1510            0.0000000000
     17997      1656  TIP3      H1             -9.1983607271       13.3000119853       26.2160081332  TIP3      1510            0.0000000000
     17998      1656  TIP3      H2             -8.3447312821       12.0670805107       26.6164945832  TIP3      1510            0.0000000000
     17999      1657  TIP3      OH2            -4.6902184277       13.6202756011       24.8076018694  TIP3      1511            0.0000000000
     18000      1657  TIP3      H1             -3.7450982492       13.3886126660       24.9214359251  TIP3      1511            0.0000000000
     18001      1657  TIP3      H2             -4.6360513567       14.3902906576       24.2159507327  TIP3      1511            0.0000000000
     18002      1658  TIP3      OH2             1.1883102587       10.7197715076       30.7495815885  TIP3      1512            0.0000000000
     18003      1658  TIP3      H1              0.4059521292       10.3845332976       31.2208467337  TIP3      1512            0.0000000000
     18004      1658  TIP3      H2              1.1818041252       10.1990442944       29.9342973306  TIP3      1512            0.0000000000
     18005      1659  TIP3      OH2             4.3493988840       26.1861625558       37.5717792813  TIP3      1513            0.0000000000
     18006      1659  TIP3      H1              4.7972070738       26.7086982063       36.8892530200  TIP3      1513            0.0000000000
     18007      1659  TIP3      H2              4.5639766041       26.7034700457       38.3754895811  TIP3      1513            0.0000000000
     18008      1660  TIP3      OH2            -7.9635311084       18.6665141565       37.0456910969  TIP3      1514            0.0000000000
     18009      1660  TIP3      H1             -7.3837748209       18.7182407735       37.8279322716  TIP3      1514            0.0000000000
     18010      1660  TIP3      H2             -8.8608670490       18.7363836532       37.4492088983  TIP3      1514            0.0000000000
     18011      1661  TIP3      OH2            -2.4350432431       14.5637416292       29.4934142792  TIP3      1515            0.0000000000
     18012      1661  TIP3      H1             -1.6262733248       14.1073415352       29.2357160932  TIP3      1515            0.0000000000
     18013      1661  TIP3      H2             -2.8376187260       13.9076668941       30.0903975414  TIP3      1515            0.0000000000
     18014      1662  TIP3      OH2            -7.6697665639       10.5318797672       26.4155403215  TIP3      1516            0.0000000000
     18015      1662  TIP3      H1             -8.1276206157        9.6890548286       26.6439886349  TIP3      1516            0.0000000000
     18016      1662  TIP3      H2             -7.0086227250       10.1750440557       25.8078766460  TIP3      1516            0.0000000000
     18017      1663  TIP3      OH2            -2.9776544191       12.6390354829       31.6860439317  TIP3      1517            0.0000000000
     18018      1663  TIP3      H1             -3.8573227653       13.0710897910       31.7612203482  TIP3      1517            0.0000000000
     18019      1663  TIP3      H2             -2.4357609957       13.1822820089       32.2820644929  TIP3      1517            0.0000000000
     18020      1664  TIP3      OH2            -2.4035324536       19.1084192204       23.8317767108  TIP3      1518            0.0000000000
     18021      1664  TIP3      H1             -3.1139572645       18.5646572289       23.4219015660  TIP3      1518            0.0000000000
     18022      1664  TIP3      H2             -2.8268325810       19.3265888888       24.6947215083  TIP3      1518            0.0000000000
     18023      1665  TIP3      OH2             4.7590849193       18.3763573511       32.5657517670  TIP3      1519            0.0000000000
     18024      1665  TIP3      H1              5.2250960179       18.8911820068       31.8614728774  TIP3      1519            0.0000000000
     18025      1665  TIP3      H2              3.8994379826       18.2533608386       32.1191930131  TIP3      1519            0.0000000000
     18026      1666  TIP3      OH2             0.9958612930       11.7286762424       22.4815140363  TIP3      1520            0.0000000000
     18027      1666  TIP3      H1              0.0988774827       11.7123082493       22.0819368248  TIP3      1520            0.0000000000
     18028      1666  TIP3      H2              1.1305944681       12.6862750213       22.5842195614  TIP3      1520            0.0000000000
     18029      1667  TIP3      OH2            -1.6593688678       19.1978951470       34.9494789849  TIP3      1521            0.0000000000
     18030      1667  TIP3      H1             -1.8432839020       18.9627459583       35.8701237772  TIP3      1521            0.0000000000
     18031      1667  TIP3      H2             -1.7164943767       20.1680533700       34.9949326175  TIP3      1521            0.0000000000
     18032      1668  TIP3      OH2             1.1730515059       14.0823272091       23.8979662829  TIP3      1522            0.0000000000
     18033      1668  TIP3      H1              2.0713328130       13.8338317165       24.2130825179  TIP3      1522            0.0000000000
     18034      1668  TIP3      H2              1.4019998748       14.8406476403       23.3269401534  TIP3      1522            0.0000000000
     18035      1669  TIP3      OH2            -7.5636946123       18.3091017512       29.5114314288  TIP3      1523            0.0000000000
     18036      1669  TIP3      H1             -6.8273610465       18.1373731585       28.8818318488  TIP3      1523            0.0000000000
     18037      1669  TIP3      H2             -7.5338701222       17.5395209970       30.1210070511  TIP3      1523            0.0000000000
     18038      1670  TIP3      OH2            -0.3675294833       20.6106406611       22.9970557791  TIP3      1524            0.0000000000
     18039      1670  TIP3      H1             -0.8170846751       21.4831779499       23.0139340974  TIP3      1524            0.0000000000
     18040      1670  TIP3      H2             -1.1090605983       19.9772787420       23.1056606307  TIP3      1524            0.0000000000
     18041      1671  TIP3      OH2           -10.7289344075       16.5881792120       34.7779205774  TIP3      1525            0.0000000000
     18042      1671  TIP3      H1            -10.8491215396       15.9412445862       35.4998754787  TIP3      1525            0.0000000000
     18043      1671  TIP3      H2            -11.2795384905       16.2236131544       34.0667036360  TIP3      1525            0.0000000000
     18044      1672  TIP3      OH2            -3.2262953034       16.2569721113       36.4477289120  TIP3      1526            0.0000000000
     18045      1672  TIP3      H1             -3.5386637424       15.8958232155       35.6136423823  TIP3      1526            0.0000000000
     18046      1672  TIP3      H2             -2.3442466076       15.8237037015       36.5286108342  TIP3      1526            0.0000000000
     18047      1673  TIP3      OH2             1.4395016792       21.5004216294       35.2005553273  TIP3      1527            0.0000000000
     18048      1673  TIP3      H1              0.6740353729       21.7538980515       34.6644412024  TIP3      1527            0.0000000000
     18049      1673  TIP3      H2              1.2058660409       21.9142022248       36.0532732898  TIP3      1527            0.0000000000
     18050      1674  TIP3      OH2             6.3931263391       13.9345455105       23.8909324795  TIP3      1528            0.0000000000
     18051      1674  TIP3      H1              6.2046180507       13.8680113858       22.9286809429  TIP3      1528            0.0000000000
     18052      1674  TIP3      H2              6.6290013935       14.8723826840       23.9839594779  TIP3      1528            0.0000000000
     18053      1675  TIP3      OH2             6.9890494071       19.4724189348       35.9260353878  TIP3      1529            0.0000000000
     18054      1675  TIP3      H1              6.1151529321       19.6912443595       35.5397919558  TIP3      1529            0.0000000000
     18055      1675  TIP3      H2              7.5546360802       19.5674030402       35.1294696762  TIP3      1529            0.0000000000
     18056      1676  TIP3      OH2             5.2506162957       22.1786545927       23.7275570324  TIP3      1530            0.0000000000
     18057      1676  TIP3      H1              4.5250698885       21.6906353716       24.1591406842  TIP3      1530            0.0000000000
     18058      1676  TIP3      H2              5.1560890821       21.9157814255       22.7948942203  TIP3      1530            0.0000000000
     18059      1677  TIP3      OH2             2.3563386587       17.5658724484       30.7658548418  TIP3      1531            0.0000000000
     18060      1677  TIP3      H1              1.4491622527       17.4060438143       30.4489546851  TIP3      1531            0.0000000000
     18061      1677  TIP3      H2              2.8162290462       16.7984958266       30.3768405710  TIP3      1531            0.0000000000
     18062      1678  TIP3      OH2            -5.0590462582       21.7902876121       26.5606154855  TIP3      1532            0.0000000000
     18063      1678  TIP3      H1             -4.7958860997       22.6155287740       26.1077509285  TIP3      1532            0.0000000000
     18064      1678  TIP3      H2             -5.7720272866       21.4513705599       25.9925068638  TIP3      1532            0.0000000000
     18065      1679  TIP3      OH2            -8.7064903678       16.6162465889       21.5217671236  TIP3      1533            0.0000000000
     18066      1679  TIP3      H1             -8.3450627517       16.4913867155       20.6105046469  TIP3      1533            0.0000000000
     18067      1679  TIP3      H2             -8.5890139801       17.5739476383       21.5683567638  TIP3      1533            0.0000000000
     18068      1680  TIP3      OH2            -3.8332184993       19.3840762101       26.2153515917  TIP3      1534            0.0000000000
     18069      1680  TIP3      H1             -4.2094714043       20.2706501063       26.3876260710  TIP3      1534            0.0000000000
     18070      1680  TIP3      H2             -4.4493970898       18.7623155981       26.6567770832  TIP3      1534            0.0000000000
     18071      1681  TIP3      OH2            -3.3126489560       23.6929236956       33.3130631652  TIP3      1535            0.0000000000
     18072      1681  TIP3      H1             -2.7526803032       24.3662695221       32.8831098005  TIP3      1535            0.0000000000
     18073      1681  TIP3      H2             -2.7099943341       23.3448536414       33.9962619060  TIP3      1535            0.0000000000
     18074      1682  TIP3      OH2            -4.8139589812       24.3682562346       25.4361426198  TIP3      1536            0.0000000000
     18075      1682  TIP3      H1             -5.5687631072       24.4630478669       26.0481890261  TIP3      1536            0.0000000000
     18076      1682  TIP3      H2             -4.2298883070       25.0585926200       25.8039304824  TIP3      1536            0.0000000000
     18077      1683  TIP3      OH2            -0.1266216780       19.5984523492       32.5470941118  TIP3      1537            0.0000000000
     18078      1683  TIP3      H1             -0.4349939329       19.2439457032       33.4113153783  TIP3      1537            0.0000000000
     18079      1683  TIP3      H2              0.4390586534       18.8782738235       32.2142922960  TIP3      1537            0.0000000000
     18080      1684  TIP3      OH2             3.0218420052       20.6115273501       21.7641614004  TIP3      1538            0.0000000000
     18081      1684  TIP3      H1              3.1208873378       19.9599988260       22.4833069442  TIP3      1538            0.0000000000
     18082      1684  TIP3      H2              2.0594412361       20.6984731019       21.6895416367  TIP3      1538            0.0000000000
     18083      1685  TIP3      OH2             2.9782402736       24.1260322839       34.9995169358  TIP3      1539            0.0000000000
     18084      1685  TIP3      H1              2.2207679419       23.5482304407       34.7822080192  TIP3      1539            0.0000000000
     18085      1685  TIP3      H2              3.0208864424       24.7416105145       34.2321528570  TIP3      1539            0.0000000000
     18086      1686  TIP3      OH2            -8.4459785087       11.6456600266       34.4527061623  TIP3      1540            0.0000000000
     18087      1686  TIP3      H1             -9.2574675029       11.8877822346       34.9502361733  TIP3      1540            0.0000000000
     18088      1686  TIP3      H2             -8.3463897777       10.7256389655       34.7486007293  TIP3      1540            0.0000000000
     18089      1687  TIP3      OH2             3.5919477120       19.2190768025       24.1012201715  TIP3      1541            0.0000000000
     18090      1687  TIP3      H1              3.5354067289       18.3432977461       24.5316764387  TIP3      1541            0.0000000000
     18091      1687  TIP3      H2              4.5727366142       19.2838319709       23.9798856666  TIP3      1541            0.0000000000
     18092      1688  TIP3      OH2            -9.2415300340       23.2223828672       32.5453296367  TIP3      1542            0.0000000000
     18093      1688  TIP3      H1             -8.6242866962       22.5334273719       32.8230142290  TIP3      1542            0.0000000000
     18094      1688  TIP3      H2             -8.9577953850       23.9588552053       33.1120542872  TIP3      1542            0.0000000000
     18095      1689  TIP3      OH2            -4.9144136326       21.2195471328       22.9376845186  TIP3      1543            0.0000000000
     18096      1689  TIP3      H1             -4.0344167114       20.8271367300       22.9542212485  TIP3      1543            0.0000000000
     18097      1689  TIP3      H2             -4.7381685258       22.1466701750       22.6739663394  TIP3      1543            0.0000000000
     18098      1690  TIP3      OH2            -7.2587442760       18.9109060874       23.7003135695  TIP3      1544            0.0000000000
     18099      1690  TIP3      H1             -8.2009900747       19.1006733848       23.8628234442  TIP3      1544            0.0000000000
     18100      1690  TIP3      H2             -7.0298992478       19.6262291308       23.0738738534  TIP3      1544            0.0000000000
     18101      1691  TIP3      OH2            -0.3955353549       11.5109109437       33.6404629885  TIP3      1545            0.0000000000
     18102      1691  TIP3      H1              0.5485234871       11.7378929819       33.5532446635  TIP3      1545            0.0000000000
     18103      1691  TIP3      H2             -0.3828121731       10.5466048204       33.7836336777  TIP3      1545            0.0000000000
     18104      1692  TIP3      OH2             0.4757006943       10.3862853438       24.7974373024  TIP3      1546            0.0000000000
     18105      1692  TIP3      H1              0.7481311944       10.9107875359       24.0040845963  TIP3      1546            0.0000000000
     18106      1692  TIP3      H2              1.1438877733       10.6936566301       25.4456325243  TIP3      1546            0.0000000000
     18107      1693  TIP3      OH2            -1.4649409042       23.1286728548       23.2116104777  TIP3      1547            0.0000000000
     18108      1693  TIP3      H1             -2.3599190633       23.5235470012       23.1450204879  TIP3      1547            0.0000000000
     18109      1693  TIP3      H2             -0.9921058111       23.7133978926       22.5662080199  TIP3      1547            0.0000000000
     18110      1694  TIP3      OH2            -2.2039057472       12.8746195083       25.6205363905  TIP3      1548            0.0000000000
     18111      1694  TIP3      H1             -1.5783362089       13.6213178320       25.7536396619  TIP3      1548            0.0000000000
     18112      1694  TIP3      H2             -2.2422798306       12.4580856556       26.5048604088  TIP3      1548            0.0000000000
     18113      1695  TIP3      OH2            -1.3705803996       14.0205839620       34.3604529652  TIP3      1549            0.0000000000
     18114      1695  TIP3      H1             -1.2545579987       14.2111190762       35.3133907116  TIP3      1549            0.0000000000
     18115      1695  TIP3      H2             -0.9894527918       13.1196660652       34.2448613721  TIP3      1549            0.0000000000
     18116      1696  TIP3      OH2            -1.5790139194        9.4299468154       26.4549332478  TIP3      1550            0.0000000000
     18117      1696  TIP3      H1             -1.9287002663       10.1757100822       26.9907316720  TIP3      1550            0.0000000000
     18118      1696  TIP3      H2             -0.7747169949        9.8289795565       26.0590711203  TIP3      1550            0.0000000000
     18119      1697  TIP3      OH2            -4.1053375208       23.9927940850       22.7763459640  TIP3      1551            0.0000000000
     18120      1697  TIP3      H1             -4.0753151064       24.9686699296       22.7739077482  TIP3      1551            0.0000000000
     18121      1697  TIP3      H2             -4.3500728783       23.8441046444       23.7164148188  TIP3      1551            0.0000000000
     18122      1698  TIP3      OH2            -5.4451619485       11.0174576619       23.1855949056  TIP3      1552            0.0000000000
     18123      1698  TIP3      H1             -5.5667273337       11.3718925029       24.0695773975  TIP3      1552            0.0000000000
     18124      1698  TIP3      H2             -5.4597712596       10.0408846945       23.3018207183  TIP3      1552            0.0000000000
     18125      1699  TIP3      OH2             4.3995674813       11.3521704919       35.1268147388  TIP3      1553            0.0000000000
     18126      1699  TIP3      H1              3.4544191200       11.5143213050       34.9462418202  TIP3      1553            0.0000000000
     18127      1699  TIP3      H2              4.7977241449       11.5214850177       34.2480875681  TIP3      1553            0.0000000000
     18128      1700  TIP3      OH2             3.6044035770       15.3437422100       29.2035399468  TIP3      1554            0.0000000000
     18129      1700  TIP3      H1              2.8386053813       14.7504193599       29.0594268639  TIP3      1554            0.0000000000
     18130      1700  TIP3      H2              4.1786155238       14.7763420605       29.7592318755  TIP3      1554            0.0000000000
     18131      1701  TIP3      OH2             4.1258764070       24.6253785201       30.8393108079  TIP3      1555            0.0000000000
     18132      1701  TIP3      H1              4.2790423142       25.2430296078       30.0861412945  TIP3      1555            0.0000000000
     18133      1701  TIP3      H2              5.0385007830       24.3867017693       31.0583056844  TIP3      1555            0.0000000000
     18134      1702  TIP3      OH2            -8.4378912574        8.5570687460       30.1964223100  TIP3      1556            0.0000000000
     18135      1702  TIP3      H1             -8.4231507319        8.2477871290       29.2693742386  TIP3      1556            0.0000000000
     18136      1702  TIP3      H2             -8.6610109329        7.7152678428       30.6442458328  TIP3      1556            0.0000000000
     18137      1703  TIP3      OH2           -10.2067982993       21.9747236918       25.5618107303  TIP3      1557            0.0000000000
     18138      1703  TIP3      H1            -10.5495156121       22.5471659116       26.2641151125  TIP3      1557            0.0000000000
     18139      1703  TIP3      H2             -9.7479780980       22.6469144341       25.0150278235  TIP3      1557            0.0000000000
     18140      1704  TIP3      OH2           -10.2135304145       25.4665335706       36.9145656936  TIP3      1558            0.0000000000
     18141      1704  TIP3      H1             -9.5540691120       25.3247940512       37.6331800325  TIP3      1558            0.0000000000
     18142      1704  TIP3      H2            -10.6381339260       24.5863482877       36.8900994305  TIP3      1558            0.0000000000
     18143      1705  TIP3      OH2            -5.4084517673       23.7604891007       38.9232044418  TIP3      1559            0.0000000000
     18144      1705  TIP3      H1             -4.4526289799       23.6518197059       38.7796825240  TIP3      1559            0.0000000000
     18145      1705  TIP3      H2             -5.7303924760       23.3896770387       38.0767525614  TIP3      1559            0.0000000000
     18146      1706  TIP3      OH2             0.8924009256       22.8066319550       37.5015586030  TIP3      1560            0.0000000000
     18147      1706  TIP3      H1              0.7469162764       21.9301310140       37.9292927046  TIP3      1560            0.0000000000
     18148      1706  TIP3      H2              1.8051910303       22.9824802234       37.8352937839  TIP3      1560            0.0000000000
     18149      1707  TIP3      OH2           -10.4511539524       18.8018508504       37.9919461486  TIP3      1561            0.0000000000
     18150      1707  TIP3      H1            -10.8497372790       17.9232088033       37.9470030318  TIP3      1561            0.0000000000
     18151      1707  TIP3      H2            -10.8601814820       19.2559593391       37.2210152488  TIP3      1561            0.0000000000
     18152      1708  TIP3      OH2            -3.6315287119       18.8907570301       37.0680167545  TIP3      1562            0.0000000000
     18153      1708  TIP3      H1             -3.9199862535       19.4460544601       36.3119831745  TIP3      1562            0.0000000000
     18154      1708  TIP3      H2             -3.4733018223       18.0004802025       36.6712843273  TIP3      1562            0.0000000000
     18155      1709  TIP3      OH2             2.0405009928       18.8039319892       35.1061637091  TIP3      1563            0.0000000000
     18156      1709  TIP3      H1              2.8666027929       19.3396134699       35.0878923407  TIP3      1563            0.0000000000
     18157      1709  TIP3      H2              1.4260380037       19.5534270373       35.1732994670  TIP3      1563            0.0000000000
     18158      1710  TIP3      OH2            -9.1011954599       15.8411244138       37.6065521815  TIP3      1564            0.0000000000
     18159      1710  TIP3      H1             -8.2153532055       15.4665637756       37.7072134332  TIP3      1564            0.0000000000
     18160      1710  TIP3      H2             -9.0066363658       16.6326643877       38.1872898161  TIP3      1564            0.0000000000
     18161      1711  TIP3      OH2            -4.3192872644       17.6347670026       22.6464220070  TIP3      1565            0.0000000000
     18162      1711  TIP3      H1             -5.1520016963       17.8207933637       23.1076609304  TIP3      1565            0.0000000000
     18163      1711  TIP3      H2             -4.6291844796       17.2438306233       21.8145210961  TIP3      1565            0.0000000000
     18164      1712  TIP3      OH2            -5.9273431264       15.3128385554       34.3554839741  TIP3      1566            0.0000000000
     18165      1712  TIP3      H1             -6.2645165238       16.2184720087       34.4528810243  TIP3      1566            0.0000000000
     18166      1712  TIP3      H2             -5.0643956981       15.5254864210       33.9677470390  TIP3      1566            0.0000000000
     18167      1713  TIP3      OH2             0.0252374846       17.8982456890       38.2952538453  TIP3      1567            0.0000000000
     18168      1713  TIP3      H1              0.7151374944       17.4678671339       37.7561253743  TIP3      1567            0.0000000000
     18169      1713  TIP3      H2             -0.2935204397       17.1799641046       38.8655131858  TIP3      1567            0.0000000000
     18170      1714  TIP3      OH2            -4.2797998190       12.8003740028       35.7315985709  TIP3      1568            0.0000000000
     18171      1714  TIP3      H1             -4.2776077183       12.1095306971       35.0312016355  TIP3      1568            0.0000000000
     18172      1714  TIP3      H2             -4.4028037542       13.6066469623       35.2202992207  TIP3      1568            0.0000000000
     18173      1715  TIP3      OH2            -4.0999677669       10.9691809399       33.5697411392  TIP3      1569            0.0000000000
     18174      1715  TIP3      H1             -3.4311785120       11.4321563888       33.0077233122  TIP3      1569            0.0000000000
     18175      1715  TIP3      H2             -4.9102154239       11.1488381974       33.0441137817  TIP3      1569            0.0000000000
     18176      1716  TIP3      OH2            -3.4549463534       16.6666106137       33.5687552976  TIP3      1570            0.0000000000
     18177      1716  TIP3      H1             -2.5472534078       16.8926252212       33.3089261392  TIP3      1570            0.0000000000
     18178      1716  TIP3      H2             -3.9541553416       17.3974898006       33.1517653763  TIP3      1570            0.0000000000
     18179      1717  TIP3      OH2             1.0009043445       14.2372196480       38.7399895169  TIP3      1571            0.0000000000
     18180      1717  TIP3      H1              1.1122681749       13.2891457387       38.9687247724  TIP3      1571            0.0000000000
     18181      1717  TIP3      H2              1.8941338368       14.4764560883       38.4467069778  TIP3      1571            0.0000000000
     18182      1718  TIP3      OH2             2.8364649978       17.3114398391       37.2443909397  TIP3      1572            0.0000000000
     18183      1718  TIP3      H1              2.4628027415       17.7318187012       36.4385915606  TIP3      1572            0.0000000000
     18184      1718  TIP3      H2              3.7799992255       17.2116695138       37.0102308718  TIP3      1572            0.0000000000
     18185      1719  TIP3      OH2            -6.4384016355       13.7651861581       37.8492844483  TIP3      1573            0.0000000000
     18186      1719  TIP3      H1             -7.1981881957       13.2435094539       37.4976044438  TIP3      1573            0.0000000000
     18187      1719  TIP3      H2             -5.7908553400       13.6313495888       37.1377431907  TIP3      1573            0.0000000000
     18188      1720  TIP3      OH2            -3.5147992967        8.3285906500       33.6149631236  TIP3      1574            0.0000000000
     18189      1720  TIP3      H1             -3.6767610472        9.2972527809       33.5603790891  TIP3      1574            0.0000000000
     18190      1720  TIP3      H2             -4.3769808004        7.9539007880       33.3905291455  TIP3      1574            0.0000000000
     18191      1721  TIP3      OH2            -2.4594870352       12.4935101596       37.8063123161  TIP3      1575            0.0000000000
     18192      1721  TIP3      H1             -3.1298130179       12.4057102138       38.5122436188  TIP3      1575            0.0000000000
     18193      1721  TIP3      H2             -3.0642436291       12.4510845713       37.0324720358  TIP3      1575            0.0000000000
     18194      1722  TIP3      OH2             0.4621124934       12.1641302356       36.5800880146  TIP3      1576            0.0000000000
     18195      1722  TIP3      H1             -0.4874773410       11.9949025216       36.6283965891  TIP3      1576            0.0000000000
     18196      1722  TIP3      H2              0.8014370990       11.4947495015       37.2244541846  TIP3      1576            0.0000000000
     18197      1723  TIP3      OH2             1.1491994933       10.2575874186       38.2845138728  TIP3      1577            0.0000000000
     18198      1723  TIP3      H1              1.4282857802        9.3371113801       38.4828641089  TIP3      1577            0.0000000000
     18199      1723  TIP3      H2              1.3498693210       10.7261500336       39.1238143685  TIP3      1577            0.0000000000
     18200      1724  TIP3      OH2            -8.3594692672       11.8755855025       37.7646002590  TIP3      1578            0.0000000000
     18201      1724  TIP3      H1             -8.4522716534       11.0238803502       37.3020607525  TIP3      1578            0.0000000000
     18202      1724  TIP3      H2             -8.4380235641       11.5933877723       38.7124201940  TIP3      1578            0.0000000000
     18203      1725  TIP3      OH2            -3.9028248863        8.0529606295       36.2647839970  TIP3      1579            0.0000000000
     18204      1725  TIP3      H1             -3.1059172952        7.4971044088       36.3114064984  TIP3      1579            0.0000000000
     18205      1725  TIP3      H2             -3.9832276953        8.1027374321       35.2876070232  TIP3      1579            0.0000000000
     18206      1726  TIP3      OH2            -3.7930798003        9.0247165441       39.0392763312  TIP3      1580            0.0000000000
     18207      1726  TIP3      H1             -3.9221017088        8.6489354900       38.1468258216  TIP3      1580            0.0000000000
     18208      1726  TIP3      H2             -3.8220502341        9.9814617223       38.8439537091  TIP3      1580            0.0000000000
     18209      1727  TIP3      OH2            -3.9755458095       26.7217660383       22.2308161503  TIP3      1581            0.0000000000
     18210      1727  TIP3      H1             -3.0131927418       26.6670621156       22.1558215365  TIP3      1581            0.0000000000
     18211      1727  TIP3      H2             -4.2889284332       26.5278097568       21.3519380387  TIP3      1581            0.0000000000
     18212      1728  TIP3      OH2           -11.7672674319       25.9204549023       26.6476780240  TIP3      1582            0.0000000000
     18213      1728  TIP3      H1            -12.2601612097       25.3282414242       26.0411558109  TIP3      1582            0.0000000000
     18214      1728  TIP3      H2            -11.1761871915       25.2931923432       27.0844049074  TIP3      1582            0.0000000000
     18215      1729  TIP3      OH2           -10.4200980142       23.8493795363       28.3106919273  TIP3      1583            0.0000000000
     18216      1729  TIP3      H1            -10.6296311627       23.0151626539       28.7834299532  TIP3      1583            0.0000000000
     18217      1729  TIP3      H2            -10.0413070911       24.3581047680       29.0510943228  TIP3      1583            0.0000000000
     18218      1730  TIP3      OH2             7.0800385758       24.8515217635       30.6880703359  TIP3      1584            0.0000000000
     18219      1730  TIP3      H1              7.1112829033       24.9743591081       31.6526084891  TIP3      1584            0.0000000000
     18220      1730  TIP3      H2              6.9594910278       25.7468490143       30.3578034063  TIP3      1584            0.0000000000
     18221      1731  TIP3      OH2             6.4114244701       24.7035477013       33.5695322069  TIP3      1585            0.0000000000
     18222      1731  TIP3      H1              6.0889262255       23.8035797496       33.3302403978  TIP3      1585            0.0000000000
     18223      1731  TIP3      H2              6.9107741157       24.4873704412       34.3703207309  TIP3      1585            0.0000000000
     18224      1732  TIP3      OH2             5.4630153166       20.2333043577       38.8379066851  TIP3      1586            0.0000000000
     18225      1732  TIP3      H1              4.6681327957       20.5246366171       39.3504855857  TIP3      1586            0.0000000000
     18226      1732  TIP3      H2              5.9511041558       21.0778193200       38.7843633375  TIP3      1586            0.0000000000
     18227      1733  TIP3      OH2             6.2050270964       18.8028747863       24.1402696876  TIP3      1587            0.0000000000
     18228      1733  TIP3      H1              7.1074169356       19.1827429982       24.0297268841  TIP3      1587            0.0000000000
     18229      1733  TIP3      H2              6.3280574951       18.0311167658       24.7195073594  TIP3      1587            0.0000000000
     18230      1734  TIP3      OH2             6.7972501788       16.8062074115       26.1783465085  TIP3      1588            0.0000000000
     18231      1734  TIP3      H1              6.0030106159       16.2668401312       26.4202812743  TIP3      1588            0.0000000000
     18232      1734  TIP3      H2              7.2514489316       16.9212205504       27.0449228338  TIP3      1588            0.0000000000
     18233      1735  TIP3      OH2             6.3264135316       19.4021324323       30.7549076713  TIP3      1589            0.0000000000
     18234      1735  TIP3      H1              7.0752654321       18.7813543143       30.6297582884  TIP3      1589            0.0000000000
     18235      1735  TIP3      H2              6.7468231293       20.2745755882       30.6107100105  TIP3      1589            0.0000000000
     18236      1736  TIP3      OH2             5.0916527439       22.3080721222       33.2204880758  TIP3      1590            0.0000000000
     18237      1736  TIP3      H1              4.4596956078       22.7472951638       33.8193686479  TIP3      1590            0.0000000000
     18238      1736  TIP3      H2              4.5319750049       22.0462712450       32.4497248342  TIP3      1590            0.0000000000
     18239      1737  TIP3      OH2             6.4121615911       13.9914544771       21.0922573010  TIP3      1591            0.0000000000
     18240      1737  TIP3      H1              6.3320544046       14.7492997523       20.4587241864  TIP3      1591            0.0000000000
     18241      1737  TIP3      H2              5.6886474232       13.4233752425       20.7346224553  TIP3      1591            0.0000000000
     18242      1738  TIP3      OH2             4.8183940727       15.0777780523       26.8081259521  TIP3      1592            0.0000000000
     18243      1738  TIP3      H1              4.2300109749       14.4602121893       26.3373315218  TIP3      1592            0.0000000000
     18244      1738  TIP3      H2              4.4026729344       15.1751348204       27.7016048279  TIP3      1592            0.0000000000
     18245      1739  TIP3      OH2           -10.7636020893       17.7107419401       30.7318913215  TIP3      1593            0.0000000000
     18246      1739  TIP3      H1            -10.8290598444       17.2187731061       29.8782566205  TIP3      1593            0.0000000000
     18247      1739  TIP3      H2             -9.8450134006       17.4442750571       30.9831393567  TIP3      1593            0.0000000000
     18248      1740  TIP3      OH2             5.6948819509       17.1162721571       36.5169475730  TIP3      1594            0.0000000000
     18249      1740  TIP3      H1              6.1188549191       16.2219312513       36.4852128326  TIP3      1594            0.0000000000
     18250      1740  TIP3      H2              6.3879009590       17.7363854761       36.1910481489  TIP3      1594            0.0000000000
     18251      1741  TIP3      OH2             6.6463708252       14.6327593199       36.8507181046  TIP3      1595            0.0000000000
     18252      1741  TIP3      H1              5.7997012730       14.1249359910       36.8040201721  TIP3      1595            0.0000000000
     18253      1741  TIP3      H2              7.3180791650       13.9124905193       36.8859195506  TIP3      1595            0.0000000000
     18254      1742  TIP3      OH2             4.6896989661       12.1456017671       20.0814553897  TIP3      1596            0.0000000000
     18255      1742  TIP3      H1              5.3049920544       11.3839339359       20.1034899212  TIP3      1596            0.0000000000
     18256      1742  TIP3      H2              3.8251894292       11.7122142501       20.1520908073  TIP3      1596            0.0000000000
     18257      1743  TIP3      OH2             3.7245349193       13.2755501975       24.7413690120  TIP3      1597            0.0000000000
     18258      1743  TIP3      H1              3.9718560343       12.3968554407       25.0954950184  TIP3      1597            0.0000000000
     18259      1743  TIP3      H2              4.6096485377       13.5257060789       24.4123447628  TIP3      1597            0.0000000000
     18260      1744  TIP3      OH2             5.1317401160       13.6260234961       30.7515508424  TIP3      1598            0.0000000000
     18261      1744  TIP3      H1              6.1132611406       13.6011645940       30.6282952707  TIP3      1598            0.0000000000
     18262      1744  TIP3      H2              5.1411062238       13.9408893357       31.6760037793  TIP3      1598            0.0000000000
     18263      1745  TIP3      OH2             5.0379674693       14.3825560931       33.3965370723  TIP3      1599            0.0000000000
     18264      1745  TIP3      H1              4.0889162969       14.5743086634       33.3120064759  TIP3      1599            0.0000000000
     18265      1745  TIP3      H2              5.4510790744       15.2478737040       33.1864806609  TIP3      1599            0.0000000000
     18266      1746  TIP3      OH2           -10.5117972905       12.6931941170       36.4388595666  TIP3      1600            0.0000000000
     18267      1746  TIP3      H1             -9.7989320396       12.4345473753       37.0642013669  TIP3      1600            0.0000000000
     18268      1746  TIP3      H2            -11.1713855798       11.9779581442       36.6196407298  TIP3      1600            0.0000000000
     18269      1747  TIP3      OH2             6.9834873431        8.6694607661       38.2736381019  TIP3      1601            0.0000000000
     18270      1747  TIP3      H1              7.4275208224        7.9452213011       37.7805040417  TIP3      1601            0.0000000000
     18271      1747  TIP3      H2              7.0024997524        9.3971999737       37.6181090670  TIP3      1601            0.0000000000
     18272      1748  TIP3      OH2             5.0614372230       10.9706846263       25.3632250340  TIP3      1602            0.0000000000
     18273      1748  TIP3      H1              5.2936106207       10.3665848569       26.0959890053  TIP3      1602            0.0000000000
     18274      1748  TIP3      H2              4.5635198846       10.3670160523       24.7928038344  TIP3      1602            0.0000000000
     18275      1749  TIP3      OH2            -9.7282625768       10.9130044614       30.5901793186  TIP3      1603            0.0000000000
     18276      1749  TIP3      H1             -9.3403486231       10.0222883063       30.4394591296  TIP3      1603            0.0000000000
     18277      1749  TIP3      H2             -9.0004007857       11.5279325368       30.4249301841  TIP3      1603            0.0000000000
     18278      1750  TIP3      OH2           -11.0934680206       13.9263930214       30.6063161744  TIP3      1604            0.0000000000
     18279      1750  TIP3      H1            -10.4139610128       13.7080660833       29.9422007468  TIP3      1604            0.0000000000
     18280      1750  TIP3      H2            -10.7086857917       14.6960610025       31.0432428695  TIP3      1604            0.0000000000
     18281      1751  TIP3      OH2             6.3294239535       10.9408297482       36.8704374921  TIP3      1605            0.0000000000
     18282      1751  TIP3      H1              5.7266775922       11.0991812210       37.6274999077  TIP3      1605            0.0000000000
     18283      1751  TIP3      H2              5.6810168587       10.8128890381       36.1413253731  TIP3      1605            0.0000000000
     18284      1752  TIP3      OH2             6.9485458945       10.3595189480       20.8461839517  TIP3      1606            0.0000000000
     18285      1752  TIP3      H1              7.5592690230        9.6922529465       21.1973059394  TIP3      1606            0.0000000000
     18286      1752  TIP3      H2              7.2221128278       11.1573386491       21.3307930978  TIP3      1606            0.0000000000
     18287      1753  TIP3      OH2           -10.8898488504       10.5159049604       25.1644218409  TIP3      1607            0.0000000000
     18288      1753  TIP3      H1            -11.6953164089        9.9903162392       25.0334130523  TIP3      1607            0.0000000000
     18289      1753  TIP3      H2            -10.5624458476       10.6640690531       24.2605442866  TIP3      1607            0.0000000000
     18290      1754  TIP3      OH2             3.7021630664       25.1310697075       26.7606102872  TIP3      1608            0.0000000000
     18291      1754  TIP3      H1              4.4440148430       25.1307945200       26.1263361696  TIP3      1608            0.0000000000
     18292      1754  TIP3      H2              4.1339313714       25.5510717141       27.5233363554  TIP3      1608            0.0000000000
     18293      1755  TIP3      OH2           -11.3033521343        8.9147112136       33.0779922419  TIP3      1609            0.0000000000
     18294      1755  TIP3      H1            -11.9835577606        8.5628296252       33.6839967566  TIP3      1609            0.0000000000
     18295      1755  TIP3      H2            -11.7778995174        9.5206617310       32.4837847614  TIP3      1609            0.0000000000
     18296      1756  TIP3      OH2            -8.8231209447       21.9807021802       37.1452399410  TIP3      1610            0.0000000000
     18297      1756  TIP3      H1             -9.6240262887       22.3525505869       36.7471381392  TIP3      1610            0.0000000000
     18298      1756  TIP3      H2             -9.0180973680       22.0238463191       38.0921413719  TIP3      1610            0.0000000000
     18299      1757  TIP3      OH2            -6.0361015009       23.4218636710       33.9473853721  TIP3      1611            0.0000000000
     18300      1757  TIP3      H1             -6.1755291946       24.2639243951       33.4640323933  TIP3      1611            0.0000000000
     18301      1757  TIP3      H2             -5.0637193255       23.3280046263       33.8311810140  TIP3      1611            0.0000000000
     18302      1758  TIP3      OH2            -1.8657555581       24.6096150291       36.1142715911  TIP3      1612            0.0000000000
     18303      1758  TIP3      H1             -1.7442316858       24.3978993947       37.0553382817  TIP3      1612            0.0000000000
     18304      1758  TIP3      H2             -0.9744372055       24.9186847812       35.8741082019  TIP3      1612            0.0000000000
     18305      1759  TIP3      OH2             0.3961546617       26.2036935535       35.5592859416  TIP3      1613            0.0000000000
     18306      1759  TIP3      H1              1.0173497835       25.5415205711       35.2091659571  TIP3      1613            0.0000000000
     18307      1759  TIP3      H2              0.7652644419       26.3387360191       36.4618466730  TIP3      1613            0.0000000000
     18308      1760  TIP3      OH2             5.6305736199        8.0988089745       34.9213967105  TIP3      1614            0.0000000000
     18309      1760  TIP3      H1              4.8351617066        8.3066368610       34.4149854280  TIP3      1614            0.0000000000
     18310      1760  TIP3      H2              5.8569284867        7.2000792218       34.5933579767  TIP3      1614            0.0000000000
     18311      1761  TIP3      OH2            -8.5574496950       26.6285507052       33.3709937646  TIP3      1615            0.0000000000
     18312      1761  TIP3      H1             -9.4028295367       27.0293392573       33.0680293060  TIP3      1615            0.0000000000
     18313      1761  TIP3      H2             -8.6263411586       26.8591577042       34.3071500167  TIP3      1615            0.0000000000
     18314      1762  TIP3      OH2            -6.3780112755       25.6842051226       32.3042526105  TIP3      1616            0.0000000000
     18315      1762  TIP3      H1             -7.2708427080       26.0292226898       32.5466424060  TIP3      1616            0.0000000000
     18316      1762  TIP3      H2             -6.0771003336       26.3797526267       31.6854419942  TIP3      1616            0.0000000000
     18317      1763  TIP3      OH2            -1.6239920108       25.6458636397       32.0579924524  TIP3      1617            0.0000000000
     18318      1763  TIP3      H1             -2.0551351126       25.8800059860       31.2107092369  TIP3      1617            0.0000000000
     18319      1763  TIP3      H2             -1.5434997285       26.5175085084       32.5041455793  TIP3      1617            0.0000000000
     18320      1764  TIP3      OH2             0.5624946441       24.3288976885       33.1906556638  TIP3      1618            0.0000000000
     18321      1764  TIP3      H1             -0.1952273107       24.7992151563       32.7737118494  TIP3      1618            0.0000000000
     18322      1764  TIP3      H2              1.2619528927       24.9844253924       33.0152287928  TIP3      1618            0.0000000000
     18323      1765  TIP3      OH2             3.0773609815       26.0454036165       32.9720131070  TIP3      1619            0.0000000000
     18324      1765  TIP3      H1              3.1131491258       27.0128247830       32.8561845425  TIP3      1619            0.0000000000
     18325      1765  TIP3      H2              3.3670398908       25.7283670732       32.0873044297  TIP3      1619            0.0000000000
     18326      1766  TIP3      OH2            -8.8680451115       24.8817399780       30.3392522981  TIP3      1620            0.0000000000
     18327      1766  TIP3      H1             -9.0188987151       24.1438307581       30.9590670645  TIP3      1620            0.0000000000
     18328      1766  TIP3      H2             -8.0006692929       24.6200547521       29.9478745919  TIP3      1620            0.0000000000
     18329      1767  TIP3      OH2            -6.6982744350       23.8229185535       29.0794006441  TIP3      1621            0.0000000000
     18330      1767  TIP3      H1             -6.7704356802       22.8473491384       29.2019505482  TIP3      1621            0.0000000000
     18331      1767  TIP3      H2             -5.8517839645       24.0002013246       29.5434156504  TIP3      1621            0.0000000000
     18332      1768  TIP3      OH2            -4.3036363841       23.8037623111       30.2364161402  TIP3      1622            0.0000000000
     18333      1768  TIP3      H1             -3.9317776769       22.9043747931       30.2053388689  TIP3      1622            0.0000000000
     18334      1768  TIP3      H2             -4.3287171641       23.9840449335       31.1902772824  TIP3      1622            0.0000000000
     18335      1769  TIP3      OH2            -1.5965161283        9.3031142075       29.5845001878  TIP3      1623            0.0000000000
     18336      1769  TIP3      H1             -2.3561468302        8.6849113287       29.7144586921  TIP3      1623            0.0000000000
     18337      1769  TIP3      H2             -1.0379377865        8.7641235511       29.0157520796  TIP3      1623            0.0000000000
     18338      1770  TIP3      OH2             4.2254165420        7.9161343640       29.1590392087  TIP3      1624            0.0000000000
     18339      1770  TIP3      H1              4.9360356634        8.5423491699       28.8841055096  TIP3      1624            0.0000000000
     18340      1770  TIP3      H2              3.4657731810        8.2435819758       28.6398777635  TIP3      1624            0.0000000000
     18341      1771  TIP3      OH2             5.9346918747        9.1712004206       27.4200145874  TIP3      1625            0.0000000000
     18342      1771  TIP3      H1              6.4565356966        8.4097808322       27.0606210303  TIP3      1625            0.0000000000
     18343      1771  TIP3      H2              6.6622264186        9.8303547670       27.5814385531  TIP3      1625            0.0000000000
     18344      1772  TIP3      OH2            -8.6865940042        8.1759046941       27.3576754049  TIP3      1626            0.0000000000
     18345      1772  TIP3      H1             -9.5626682896        8.0448476836       26.9296506838  TIP3      1626            0.0000000000
     18346      1772  TIP3      H2             -8.1785307275        7.4355076310       26.9657102970  TIP3      1626            0.0000000000
     18347      1773  TIP3      OH2            -4.2080883972        8.2172429991       26.9248055831  TIP3      1627            0.0000000000
     18348      1773  TIP3      H1             -3.3431583210        8.4533681364       26.5492111397  TIP3      1627            0.0000000000
     18349      1773  TIP3      H2             -4.1054822715        8.4817023559       27.8423038687  TIP3      1627            0.0000000000
     18350      1774  TIP3      OH2             1.6101086783        8.4601704989       27.7732359032  TIP3      1628            0.0000000000
     18351      1774  TIP3      H1              1.1158293025        8.5585649340       26.9505953956  TIP3      1628            0.0000000000
     18352      1774  TIP3      H2              1.1214098836        7.7436643656       28.2394968044  TIP3      1628            0.0000000000
     18353      1775  TIP3      OH2             3.0287630620        8.5487974524       24.0453921041  TIP3      1629            0.0000000000
     18354      1775  TIP3      H1              2.4316422014        8.7934847928       23.3136873061  TIP3      1629            0.0000000000
     18355      1775  TIP3      H2              2.5518432418        7.7719462250       24.4112338876  TIP3      1629            0.0000000000
     18356      1776  TIP3      OH2            -9.9664342940       24.2504854064       24.1318921006  TIP3      1630            0.0000000000
     18357      1776  TIP3      H1            -10.7386187777       24.1111591272       23.5786373995  TIP3      1630            0.0000000000
     18358      1776  TIP3      H2             -9.7683077594       25.1849077021       23.9106967104  TIP3      1630            0.0000000000
     18359      1777  TIP3      OH2            -2.3838120018       10.4963150033       23.7731805602  TIP3      1631            0.0000000000
     18360      1777  TIP3      H1             -1.7751900851       10.1390229571       24.4377240941  TIP3      1631            0.0000000000
     18361      1777  TIP3      H2             -2.8749066973       11.1713866761       24.2633352073  TIP3      1631            0.0000000000
     18362      1778  TIP3      OH2             5.6236841600       24.7983084558       24.8956147358  TIP3      1632            0.0000000000
     18363      1778  TIP3      H1              5.7048876163       23.8696412494       24.5596332975  TIP3      1632            0.0000000000
     18364      1778  TIP3      H2              5.1751380492       25.1904548650       24.1375956650  TIP3      1632            0.0000000000
     18365      1779  TIP3      OH2            -9.0019770652        9.0536616503       36.4005748915  TIP3      1633            0.0000000000
     18366      1779  TIP3      H1             -9.5175851772        8.2302391698       36.5298785630  TIP3      1633            0.0000000000
     18367      1779  TIP3      H2             -8.2846277913        8.9351507734       37.0640738481  TIP3      1633            0.0000000000
     18368      1780  TIP3      OH2            -6.9408377395        8.3761700244       38.2013258206  TIP3      1634            0.0000000000
     18369      1780  TIP3      H1             -6.0999673644        8.0005598758       37.8904239247  TIP3      1634            0.0000000000
     18370      1780  TIP3      H2             -7.3467664342        7.6056674535       38.6356124039  TIP3      1634            0.0000000000
     18371      1781  TIP3      OH2            -8.2617747243       25.4934150253       20.6515135662  TIP3      1635            0.0000000000
     18372      1781  TIP3      H1             -8.4409275581       25.9935091501       21.4598779353  TIP3      1635            0.0000000000
     18373      1781  TIP3      H2             -7.9609976891       24.6339206102       20.9774429004  TIP3      1635            0.0000000000
     18374      1782  TIP3      OH2             1.6085780757        7.6900309253       38.6411056036  TIP3      1636            0.0000000000
     18375      1782  TIP3      H1              1.7261873329        7.2547975397       39.5143137124  TIP3      1636            0.0000000000
     18376      1782  TIP3      H2              2.4743437926        7.4823897360       38.2361255250  TIP3      1636            0.0000000000
     18377      1783  TIP3      OH2             4.8736095567       23.7123018937       36.8464743823  TIP3      1637            0.0000000000
     18378      1783  TIP3      H1              4.0310467458       23.6505989984       36.3375216394  TIP3      1637            0.0000000000
     18379      1783  TIP3      H2              4.8068305444       24.6411283424       37.1631100622  TIP3      1637            0.0000000000
     18380      1784  TIP3      OH2            19.5174008574       17.9702887565       26.8705607434  TIP3      1638            0.0000000000
     18381      1784  TIP3      H1             19.4438912041       18.9372207933       27.0084243293  TIP3      1638            0.0000000000
     18382      1784  TIP3      H2             18.7461485422       17.8326790368       26.2943329314  TIP3      1638            0.0000000000
     18383      1785  TIP3      OH2            17.9614488141       16.6575983074       30.2938323446  TIP3      1639            0.0000000000
     18384      1785  TIP3      H1             17.9731682334       16.1118639537       31.1049124379  TIP3      1639            0.0000000000
     18385      1785  TIP3      H2             17.3026522588       16.2116389148       29.7391241280  TIP3      1639            0.0000000000
     18386      1786  TIP3      OH2            10.3761559200       16.2925613699       31.7012220834  TIP3      1640            0.0000000000
     18387      1786  TIP3      H1             10.3042710026       15.4956775619       32.2566829328  TIP3      1640            0.0000000000
     18388      1786  TIP3      H2             10.7057811156       16.9365347383       32.3675419613  TIP3      1640            0.0000000000
     18389      1787  TIP3      OH2            21.1112946631       20.0353035590       28.9960503218  TIP3      1641            0.0000000000
     18390      1787  TIP3      H1             21.0864562931       19.2026701116       29.4873146936  TIP3      1641            0.0000000000
     18391      1787  TIP3      H2             21.5902950670       20.6062910882       29.6221397173  TIP3      1641            0.0000000000
     18392      1788  TIP3      OH2            11.7356805011       21.2486829679       29.5287046156  TIP3      1642            0.0000000000
     18393      1788  TIP3      H1             11.3341276491       20.3569934194       29.5556626752  TIP3      1642            0.0000000000
     18394      1788  TIP3      H2             12.6406303110       20.9979197037       29.8015530013  TIP3      1642            0.0000000000
     18395      1789  TIP3      OH2             8.4261880918       14.2858119348       25.7631184449  TIP3      1643            0.0000000000
     18396      1789  TIP3      H1              8.0578557738       15.1655351991       25.9486798650  TIP3      1643            0.0000000000
     18397      1789  TIP3      H2              7.6025530761       13.8176633140       25.5530594496  TIP3      1643            0.0000000000
     18398      1790  TIP3      OH2             8.5851676778       16.7900968963       28.2238865092  TIP3      1644            0.0000000000
     18399      1790  TIP3      H1              8.9252692383       15.8656064428       28.3259600200  TIP3      1644            0.0000000000
     18400      1790  TIP3      H2              9.2808213016       17.2391426380       27.7189539443  TIP3      1644            0.0000000000
     18401      1791  TIP3      OH2            18.4755903280       25.1979965763       28.9184751077  TIP3      1645            0.0000000000
     18402      1791  TIP3      H1             19.1551420794       24.6528114269       28.4582563224  TIP3      1645            0.0000000000
     18403      1791  TIP3      H2             17.8634116325       24.5120627966       29.2206537118  TIP3      1645            0.0000000000
     18404      1792  TIP3      OH2            16.2714886460       19.3958135865       31.3249427456  TIP3      1646            0.0000000000
     18405      1792  TIP3      H1             16.7410523923       19.3365446594       30.4766143269  TIP3      1646            0.0000000000
     18406      1792  TIP3      H2             17.0572240360       19.4678585704       31.9143664231  TIP3      1646            0.0000000000
     18407      1793  TIP3      OH2            25.3871336632       10.8754312776       31.2232393693  TIP3      1647            0.0000000000
     18408      1793  TIP3      H1             25.2342657462       11.5105689384       31.9501053770  TIP3      1647            0.0000000000
     18409      1793  TIP3      H2             26.3551541931       10.9180655816       31.1412507418  TIP3      1647            0.0000000000
     18410      1794  TIP3      OH2            20.3137345726       13.9672383668       31.2973735309  TIP3      1648            0.0000000000
     18411      1794  TIP3      H1             20.7130448013       13.0800334675       31.3300056838  TIP3      1648            0.0000000000
     18412      1794  TIP3      H2             20.0586200222       14.0160284016       30.3486111550  TIP3      1648            0.0000000000
     18413      1795  TIP3      OH2            13.2065478395       11.4006978252       27.9617731840  TIP3      1649            0.0000000000
     18414      1795  TIP3      H1             13.1831844436       12.2880276393       27.5485844821  TIP3      1649            0.0000000000
     18415      1795  TIP3      H2             12.5601019919       10.9364780905       27.3876925490  TIP3      1649            0.0000000000
     18416      1796  TIP3      OH2            20.5109335171       12.2372304069       27.1479619000  TIP3      1650            0.0000000000
     18417      1796  TIP3      H1             21.0727248201       11.6802842006       27.7295720487  TIP3      1650            0.0000000000
     18418      1796  TIP3      H2             21.1905613847       12.7099662672       26.6372439442  TIP3      1650            0.0000000000
     18419      1797  TIP3      OH2             9.5281924023       14.3788881060       28.9329181104  TIP3      1651            0.0000000000
     18420      1797  TIP3      H1             10.1581257739       14.1534308404       29.6356900050  TIP3      1651            0.0000000000
     18421      1797  TIP3      H2              9.8430102455       13.7984583849       28.2033332680  TIP3      1651            0.0000000000
     18422      1798  TIP3      OH2            14.0466338702       15.8376570735       28.2437987958  TIP3      1652            0.0000000000
     18423      1798  TIP3      H1             14.9004670322       15.4692665064       28.5633966161  TIP3      1652            0.0000000000
     18424      1798  TIP3      H2             13.6809089434       15.0619460397       27.7573820015  TIP3      1652            0.0000000000
     18425      1799  TIP3      OH2            25.5356713880       12.2265633323       33.7897135128  TIP3      1653            0.0000000000
     18426      1799  TIP3      H1             25.1144633496       13.0229536755       33.3783647164  TIP3      1653            0.0000000000
     18427      1799  TIP3      H2             25.9068058407       12.6216173412       34.6082850890  TIP3      1653            0.0000000000
     18428      1800  TIP3      OH2            12.0395141348       10.5385597709       32.2510155860  TIP3      1654            0.0000000000
     18429      1800  TIP3      H1             11.7121755434       11.0603384587       31.4855096654  TIP3      1654            0.0000000000
     18430      1800  TIP3      H2             11.3869772963       10.7974830570       32.9254714700  TIP3      1654            0.0000000000
     18431      1801  TIP3      OH2            18.8069390017       20.5657104880       26.0127644612  TIP3      1655            0.0000000000
     18432      1801  TIP3      H1             19.1006011488       21.1697214319       25.3268422754  TIP3      1655            0.0000000000
     18433      1801  TIP3      H2             18.2974130824       21.1840333535       26.5826736171  TIP3      1655            0.0000000000
     18434      1802  TIP3      OH2            13.9619657583       18.4244093573       32.3149358107  TIP3      1656            0.0000000000
     18435      1802  TIP3      H1             13.3406014797       19.1558671388       32.5249627259  TIP3      1656            0.0000000000
     18436      1802  TIP3      H2             14.7492637068       18.9237355110       32.0098812892  TIP3      1656            0.0000000000
     18437      1803  TIP3      OH2            22.5311517568       11.6136637292       28.9842741074  TIP3      1657            0.0000000000
     18438      1803  TIP3      H1             22.0172260360       11.2550874133       29.7337529623  TIP3      1657            0.0000000000
     18439      1803  TIP3      H2             23.3805084629       11.8552468118       29.3948003499  TIP3      1657            0.0000000000
     18440      1804  TIP3      OH2            11.5953972350       12.5121562976       30.3320538144  TIP3      1658            0.0000000000
     18441      1804  TIP3      H1             12.1292220379       13.2075034158       30.7775883077  TIP3      1658            0.0000000000
     18442      1804  TIP3      H2             12.1254333210       12.3068110545       29.5375936952  TIP3      1658            0.0000000000
     18443      1805  TIP3      OH2            12.6643166367       20.6609579079       33.2223935883  TIP3      1659            0.0000000000
     18444      1805  TIP3      H1             12.6007205283       21.5599096228       32.8587628201  TIP3      1659            0.0000000000
     18445      1805  TIP3      H2             11.8335250034       20.6192489706       33.7624808434  TIP3      1659            0.0000000000
     18446      1806  TIP3      OH2             8.6793523246       19.9645217546       23.6906136231  TIP3      1660            0.0000000000
     18447      1806  TIP3      H1              8.5802123385       20.5337473403       22.9033210289  TIP3      1660            0.0000000000
     18448      1806  TIP3      H2              8.9938613062       20.6370970390       24.3441393786  TIP3      1660            0.0000000000
     18449      1807  TIP3      OH2            22.3479275313       21.7961261858       30.7002684613  TIP3      1661            0.0000000000
     18450      1807  TIP3      H1             21.4014477651       21.8615297962       30.9702690333  TIP3      1661            0.0000000000
     18451      1807  TIP3      H2             22.4680751458       22.7278554970       30.4300879300  TIP3      1661            0.0000000000
     18452      1808  TIP3      OH2            22.8626308050       10.0279581284       32.1737504017  TIP3      1662            0.0000000000
     18453      1808  TIP3      H1             22.2274109217       10.1050328953       31.4383451442  TIP3      1662            0.0000000000
     18454      1808  TIP3      H2             23.7016518087       10.2394274938       31.7227086183  TIP3      1662            0.0000000000
     18455      1809  TIP3      OH2            15.3217890553        7.7591796296       29.6809992767  TIP3      1663            0.0000000000
     18456      1809  TIP3      H1             15.0846791512        6.8227618123       29.7650881209  TIP3      1663            0.0000000000
     18457      1809  TIP3      H2             14.5066568036        8.1331138909       30.0981885755  TIP3      1663            0.0000000000
     18458      1810  TIP3      OH2            20.2242059744       23.8976713350       27.2156610449  TIP3      1664            0.0000000000
     18459      1810  TIP3      H1             20.5031551308       22.9646643443       27.1882833508  TIP3      1664            0.0000000000
     18460      1810  TIP3      H2             21.1041699890       24.3388510835       27.0633783398  TIP3      1664            0.0000000000
     18461      1811  TIP3      OH2            22.1124546655       21.2681537778       25.7610991880  TIP3      1665            0.0000000000
     18462      1811  TIP3      H1             22.1051536632       20.5294324228       25.1087703338  TIP3      1665            0.0000000000
     18463      1811  TIP3      H2             21.6845730392       20.8307956767       26.5169514683  TIP3      1665            0.0000000000
     18464      1812  TIP3      OH2            23.4487733266       19.8612773171       34.5162945657  TIP3      1666            0.0000000000
     18465      1812  TIP3      H1             23.3934014629       19.2022772940       33.7766731181  TIP3      1666            0.0000000000
     18466      1812  TIP3      H2             23.5449624458       20.6705670879       33.9776269705  TIP3      1666            0.0000000000
     18467      1813  TIP3      OH2            17.9423818767       16.8632613442       24.2962608490  TIP3      1667            0.0000000000
     18468      1813  TIP3      H1             17.3585647550       17.5535688692       23.9103318489  TIP3      1667            0.0000000000
     18469      1813  TIP3      H2             18.7384313021       16.9725364656       23.7533415588  TIP3      1667            0.0000000000
     18470      1814  TIP3      OH2            25.3728415013       16.7603855413       32.5609397645  TIP3      1668            0.0000000000
     18471      1814  TIP3      H1             24.6115742382       17.3388866168       32.3538091053  TIP3      1668            0.0000000000
     18472      1814  TIP3      H2             25.9656852510       16.9421443342       31.7983803011  TIP3      1668            0.0000000000
     18473      1815  TIP3      OH2            21.4291509859       16.5889621679       25.4871845904  TIP3      1669            0.0000000000
     18474      1815  TIP3      H1             20.8388791750       17.1730921549       26.0309466254  TIP3      1669            0.0000000000
     18475      1815  TIP3      H2             22.0458486347       16.2524345069       26.1813613469  TIP3      1669            0.0000000000
     18476      1816  TIP3      OH2            21.5706174385       15.4197797029       34.4609051511  TIP3      1670            0.0000000000
     18477      1816  TIP3      H1             21.1707591164       16.1583737193       34.9373776322  TIP3      1670            0.0000000000
     18478      1816  TIP3      H2             21.1921814508       15.5691430710       33.5862354913  TIP3      1670            0.0000000000
     18479      1817  TIP3      OH2            12.8950135895       17.9947759980       27.2834786163  TIP3      1671            0.0000000000
     18480      1817  TIP3      H1             12.8142116155       17.7625482657       26.3462621801  TIP3      1671            0.0000000000
     18481      1817  TIP3      H2             13.3759749402       17.2140641515       27.6353519168  TIP3      1671            0.0000000000
     18482      1818  TIP3      OH2            14.4176236094       20.8740715734       29.8453946386  TIP3      1672            0.0000000000
     18483      1818  TIP3      H1             14.4743566964       20.5537016404       28.9350910152  TIP3      1672            0.0000000000
     18484      1818  TIP3      H2             15.0396372274       20.2881107963       30.3232142366  TIP3      1672            0.0000000000
     18485      1819  TIP3      OH2            13.2628575523       16.3062677396       30.7221507921  TIP3      1673            0.0000000000
     18486      1819  TIP3      H1             13.5646194125       16.3404522257       29.7918267516  TIP3      1673            0.0000000000
     18487      1819  TIP3      H2             13.6843739080       17.0951956883       31.1194915351  TIP3      1673            0.0000000000
     18488      1820  TIP3      OH2            19.9652072277       22.1350612865       31.6878660205  TIP3      1674            0.0000000000
     18489      1820  TIP3      H1             19.5979714781       22.8750183076       32.1999200251  TIP3      1674            0.0000000000
     18490      1820  TIP3      H2             19.5055025647       21.3665352890       32.0891567558  TIP3      1674            0.0000000000
     18491      1821  TIP3      OH2            14.3629577207       20.8664577209       35.2783944286  TIP3      1675            0.0000000000
     18492      1821  TIP3      H1             13.6476150985       21.2365558220       35.8392416271  TIP3      1675            0.0000000000
     18493      1821  TIP3      H2             13.8725684512       20.7260515881       34.4339566942  TIP3      1675            0.0000000000
     18494      1822  TIP3      OH2            20.3495790707       16.3145695309       22.9663232099  TIP3      1676            0.0000000000
     18495      1822  TIP3      H1             20.7636769826       16.5711858353       23.8201676234  TIP3      1676            0.0000000000
     18496      1822  TIP3      H2             20.7696369921       16.9215318667       22.3352007273  TIP3      1676            0.0000000000
     18497      1823  TIP3      OH2            11.1345575546       17.4329787205       34.0259273302  TIP3      1677            0.0000000000
     18498      1823  TIP3      H1             11.5769969349       18.1463218682       34.5125467388  TIP3      1677            0.0000000000
     18499      1823  TIP3      H2             10.6570901872       16.9950338083       34.7591225891  TIP3      1677            0.0000000000
     18500      1824  TIP3      OH2            17.8005869048       23.0084363520       26.8070317382  TIP3      1678            0.0000000000
     18501      1824  TIP3      H1             18.5194405072       23.6595067390       26.8769163492  TIP3      1678            0.0000000000
     18502      1824  TIP3      H2             17.4609070364       23.1658980960       25.9174853652  TIP3      1678            0.0000000000
     18503      1825  TIP3      OH2            12.6049061349       22.5081537989       36.7257284305  TIP3      1679            0.0000000000
     18504      1825  TIP3      H1             12.4560333101       22.9077859967       35.8543905330  TIP3      1679            0.0000000000
     18505      1825  TIP3      H2             11.6919939755       22.1890183999       36.9097100080  TIP3      1679            0.0000000000
     18506      1826  TIP3      OH2            23.9859145566        8.3015573438       23.0117893562  TIP3      1680            0.0000000000
     18507      1826  TIP3      H1             23.0254715616        8.4382737812       22.8018099221  TIP3      1680            0.0000000000
     18508      1826  TIP3      H2             24.3576059994        9.1983071551       22.9969084926  TIP3      1680            0.0000000000
     18509      1827  TIP3      OH2            11.7767255040       16.5806442924       23.9229331120  TIP3      1681            0.0000000000
     18510      1827  TIP3      H1             11.4831441154       17.3266794855       23.3513071958  TIP3      1681            0.0000000000
     18511      1827  TIP3      H2             11.0552388596       16.5979025672       24.5663839786  TIP3      1681            0.0000000000
     18512      1828  TIP3      OH2             8.4553356552       19.3149443915       33.7076463668  TIP3      1682            0.0000000000
     18513      1828  TIP3      H1              7.8754627579       19.3303055251       32.9364958423  TIP3      1682            0.0000000000
     18514      1828  TIP3      H2              8.6838575151       18.3659409506       33.7404142299  TIP3      1682            0.0000000000
     18515      1829  TIP3      OH2             8.0536589008       21.6832968952       30.4477829574  TIP3      1683            0.0000000000
     18516      1829  TIP3      H1              8.8907066018       21.2162995630       30.3796879022  TIP3      1683            0.0000000000
     18517      1829  TIP3      H2              8.2989620142       22.5009369567       30.9173509845  TIP3      1683            0.0000000000
     18518      1830  TIP3      OH2            26.1017583505       22.5841334750       36.1397148052  TIP3      1684            0.0000000000
     18519      1830  TIP3      H1             25.9366675759       21.6310924117       36.0939157261  TIP3      1684            0.0000000000
     18520      1830  TIP3      H2             25.2412230059       22.8598981201       36.5377908339  TIP3      1684            0.0000000000
     18521      1831  TIP3      OH2            17.0626023712       22.0619872569       35.1831961194  TIP3      1685            0.0000000000
     18522      1831  TIP3      H1             17.1138882503       22.8263294201       35.7940803335  TIP3      1685            0.0000000000
     18523      1831  TIP3      H2             16.1407416981       21.7550243836       35.2957873906  TIP3      1685            0.0000000000
     18524      1832  TIP3      OH2            18.0561423016       26.3798288484       24.5076340549  TIP3      1686            0.0000000000
     18525      1832  TIP3      H1             17.7511895643       26.6352517391       23.6191214945  TIP3      1686            0.0000000000
     18526      1832  TIP3      H2             17.9297167370       27.2236674234       25.0035040698  TIP3      1686            0.0000000000
     18527      1833  TIP3      OH2            11.1847499699       24.9470792153       27.0004301730  TIP3      1687            0.0000000000
     18528      1833  TIP3      H1             11.7014234248       24.5956959765       27.7659749596  TIP3      1687            0.0000000000
     18529      1833  TIP3      H2             10.3553673731       24.4458430357       27.0900021007  TIP3      1687            0.0000000000
     18530      1834  TIP3      OH2            20.5284101574       24.4701664865       21.6654752139  TIP3      1688            0.0000000000
     18531      1834  TIP3      H1             19.8533870126       23.7783865020       21.7010833923  TIP3      1688            0.0000000000
     18532      1834  TIP3      H2             20.4931279792       24.7799956298       22.5926966332  TIP3      1688            0.0000000000
     18533      1835  TIP3      OH2            20.1717044455       24.7685870019       24.3903786733  TIP3      1689            0.0000000000
     18534      1835  TIP3      H1             19.3335425164       25.2818439531       24.4695335294  TIP3      1689            0.0000000000
     18535      1835  TIP3      H2             20.2701661329       24.4147821228       25.2852194815  TIP3      1689            0.0000000000
     18536      1836  TIP3      OH2            23.1513348534       14.0927285334       36.5725367485  TIP3      1690            0.0000000000
     18537      1836  TIP3      H1             22.5237542693       14.4840999206       35.9368069010  TIP3      1690            0.0000000000
     18538      1836  TIP3      H2             23.0927901674       13.1446091589       36.3376726493  TIP3      1690            0.0000000000
     18539      1837  TIP3      OH2            10.5653336045       20.5199846395       34.8533095095  TIP3      1691            0.0000000000
     18540      1837  TIP3      H1             10.5829501104       20.0593447200       35.7191518437  TIP3      1691            0.0000000000
     18541      1837  TIP3      H2              9.7537069093       20.1412914599       34.4471888117  TIP3      1691            0.0000000000
     18542      1838  TIP3      OH2            13.0795541675        8.6760300653       30.7157024704  TIP3      1692            0.0000000000
     18543      1838  TIP3      H1             12.1625630316        8.7602181622       30.3944230704  TIP3      1692            0.0000000000
     18544      1838  TIP3      H2             13.0099686072        9.2021166615       31.5404510973  TIP3      1692            0.0000000000
     18545      1839  TIP3      OH2            18.2834790221        8.7041737175       33.4128470994  TIP3      1693            0.0000000000
     18546      1839  TIP3      H1             18.4224267026        8.0181062756       34.0887905936  TIP3      1693            0.0000000000
     18547      1839  TIP3      H2             17.3048065375        8.7444128428       33.3298615238  TIP3      1693            0.0000000000
     18548      1840  TIP3      OH2            20.5074094681       12.8037282739       34.6894014858  TIP3      1694            0.0000000000
     18549      1840  TIP3      H1             19.9732070056       12.5447786685       35.4857903237  TIP3      1694            0.0000000000
     18550      1840  TIP3      H2             20.0967262418       13.6515721870       34.4573410415  TIP3      1694            0.0000000000
     18551      1841  TIP3      OH2            13.2764870416       13.9837281369       31.9044125624  TIP3      1695            0.0000000000
     18552      1841  TIP3      H1             12.4297197868       13.9112607934       32.3902650504  TIP3      1695            0.0000000000
     18553      1841  TIP3      H2             13.1737281174       14.8762774722       31.4884440269  TIP3      1695            0.0000000000
     18554      1842  TIP3      OH2            12.9857415222       13.8046933476       26.7283704996  TIP3      1696            0.0000000000
     18555      1842  TIP3      H1             12.0733232825       13.5641503667       26.4866059850  TIP3      1696            0.0000000000
     18556      1842  TIP3      H2             13.4874397273       13.7941631695       25.8901792505  TIP3      1696            0.0000000000
     18557      1843  TIP3      OH2            18.5248376980       14.5842484315       25.5837683083  TIP3      1697            0.0000000000
     18558      1843  TIP3      H1             18.2432571203       15.4379778719       25.1648506791  TIP3      1697            0.0000000000
     18559      1843  TIP3      H2             19.3618982953       14.4068953823       25.1390625613  TIP3      1697            0.0000000000
     18560      1844  TIP3      OH2            17.7061422569       14.8934025485       36.7278780975  TIP3      1698            0.0000000000
     18561      1844  TIP3      H1             17.2654718482       14.0842995749       37.0820654853  TIP3      1698            0.0000000000
     18562      1844  TIP3      H2             18.2560079315       15.1355627799       37.4860415722  TIP3      1698            0.0000000000
     18563      1845  TIP3      OH2            20.0176384741       14.5388133654       28.6607768799  TIP3      1699            0.0000000000
     18564      1845  TIP3      H1             19.7535001287       15.2807877690       28.0770599051  TIP3      1699            0.0000000000
     18565      1845  TIP3      H2             19.9310065886       13.7795712669       28.0410182357  TIP3      1699            0.0000000000
     18566      1846  TIP3      OH2            10.8094521863       13.8451825112       32.9217323087  TIP3      1700            0.0000000000
     18567      1846  TIP3      H1             11.1562282993       14.3445325153       33.6819203783  TIP3      1700            0.0000000000
     18568      1846  TIP3      H2             10.4992194921       13.0192549199       33.3622027172  TIP3      1700            0.0000000000
     18569      1847  TIP3      OH2             7.7442187194       11.1467059266       27.9232944644  TIP3      1701            0.0000000000
     18570      1847  TIP3      H1              8.4695126322       11.1380275121       28.5754363075  TIP3      1701            0.0000000000
     18571      1847  TIP3      H2              8.0442832112       11.8096868458       27.2881183281  TIP3      1701            0.0000000000
     18572      1848  TIP3      OH2             8.1248094979       11.9470088495       22.9194753188  TIP3      1702            0.0000000000
     18573      1848  TIP3      H1              8.7335731570       12.4556298443       22.3769820189  TIP3      1702            0.0000000000
     18574      1848  TIP3      H2              7.6389961714       12.6648910951       23.3649824704  TIP3      1702            0.0000000000
     18575      1849  TIP3      OH2            18.8979316658       15.9094402674       32.7464970709  TIP3      1703            0.0000000000
     18576      1849  TIP3      H1             19.4103181590       15.2116977975       32.2883958074  TIP3      1703            0.0000000000
     18577      1849  TIP3      H2             18.3176291991       15.3467432234       33.3226111769  TIP3      1703            0.0000000000
     18578      1850  TIP3      OH2            16.0754697894       11.4716762660       27.9432601732  TIP3      1704            0.0000000000
     18579      1850  TIP3      H1             15.1018799659       11.5386175366       28.0545444078  TIP3      1704            0.0000000000
     18580      1850  TIP3      H2             16.3226849040       11.1140001108       28.8192626947  TIP3      1704            0.0000000000
     18581      1851  TIP3      OH2            10.3347971441       12.6926931736       26.9093385427  TIP3      1705            0.0000000000
     18582      1851  TIP3      H1              9.7697303435       13.2432068425       26.3248035965  TIP3      1705            0.0000000000
     18583      1851  TIP3      H2             10.4616382683       11.8680703894       26.3966305150  TIP3      1705            0.0000000000
     18584      1852  TIP3      OH2            20.5702562700       10.8121603606       30.7323720502  TIP3      1706            0.0000000000
     18585      1852  TIP3      H1             19.8397580971       11.0048389015       31.3384186769  TIP3      1706            0.0000000000
     18586      1852  TIP3      H2             20.1271050000       10.2246087291       30.0800593797  TIP3      1706            0.0000000000
     18587      1853  TIP3      OH2            23.0020439432       26.3294883688       37.6009169083  TIP3      1707            0.0000000000
     18588      1853  TIP3      H1             23.3683554344       26.7354784533       36.8036903229  TIP3      1707            0.0000000000
     18589      1853  TIP3      H2             23.7571462064       26.4228757139       38.2087230566  TIP3      1707            0.0000000000
     18590      1854  TIP3      OH2            10.9729448696       18.7837341172       37.0050262638  TIP3      1708            0.0000000000
     18591      1854  TIP3      H1             11.6041959770       19.0088062852       37.7194339691  TIP3      1708            0.0000000000
     18592      1854  TIP3      H2             10.1126057104       18.7872109877       37.4900956354  TIP3      1708            0.0000000000
     18593      1855  TIP3      OH2            16.2893213915       14.7928461923       29.3641916892  TIP3      1709            0.0000000000
     18594      1855  TIP3      H1             17.0323350192       14.3630450114       28.9106947760  TIP3      1709            0.0000000000
     18595      1855  TIP3      H2             16.0850888958       14.1550697995       30.0673987906  TIP3      1709            0.0000000000
     18596      1856  TIP3      OH2            11.6840345652       10.0675107927       26.1534283957  TIP3      1710            0.0000000000
     18597      1856  TIP3      H1             11.0371694349        9.4213361461       26.5233267035  TIP3      1710            0.0000000000
     18598      1856  TIP3      H2             12.4307831647        9.4747807235       25.9673422938  TIP3      1710            0.0000000000
     18599      1857  TIP3      OH2            15.5436079456       12.3473888176       31.6293924804  TIP3      1711            0.0000000000
     18600      1857  TIP3      H1             14.7906826441       12.9489423505       31.8070797713  TIP3      1711            0.0000000000
     18601      1857  TIP3      H2             16.1932539458       12.5890494246       32.3089992495  TIP3      1711            0.0000000000
     18602      1858  TIP3      OH2            16.2158149373       18.8742733287       23.5929472964  TIP3      1712            0.0000000000
     18603      1858  TIP3      H1             15.4584088724       18.9801203505       22.9964495309  TIP3      1712            0.0000000000
     18604      1858  TIP3      H2             15.8633839853       19.2568981358       24.4389027647  TIP3      1712            0.0000000000
     18605      1859  TIP3      OH2            23.3653111763       18.6346361226       32.1984742252  TIP3      1713            0.0000000000
     18606      1859  TIP3      H1             23.9600498309       18.9943259738       31.4967241145  TIP3      1713            0.0000000000
     18607      1859  TIP3      H2             22.5785845547       18.3551498375       31.6779431069  TIP3      1713            0.0000000000
     18608      1860  TIP3      OH2            20.1083387628       11.5297149362       22.5893508707  TIP3      1714            0.0000000000
     18609      1860  TIP3      H1             20.7013092647       11.1144845170       21.9478230024  TIP3      1714            0.0000000000
     18610      1860  TIP3      H2             20.5159312117       12.4059279356       22.7775169918  TIP3      1714            0.0000000000
     18611      1861  TIP3      OH2            17.2475727414       19.3011705274       34.7199398112  TIP3      1715            0.0000000000
     18612      1861  TIP3      H1             17.2031817119       18.9611971949       35.6170370833  TIP3      1715            0.0000000000
     18613      1861  TIP3      H2             17.1705230655       20.2625662294       34.8628984222  TIP3      1715            0.0000000000
     18614      1862  TIP3      OH2            21.0467613961       13.7980520222       23.5975692616  TIP3      1716            0.0000000000
     18615      1862  TIP3      H1             21.5911712169       14.0793329782       24.3501721604  TIP3      1716            0.0000000000
     18616      1862  TIP3      H2             20.7843851955       14.6629707747       23.2167764591  TIP3      1716            0.0000000000
     18617      1863  TIP3      OH2            11.4173071777       18.4004655377       29.6710087970  TIP3      1717            0.0000000000
     18618      1863  TIP3      H1             12.0247177260       18.2767795230       28.9095312415  TIP3      1717            0.0000000000
     18619      1863  TIP3      H2             11.4863260010       17.5528429242       30.1586452051  TIP3      1717            0.0000000000
     18620      1864  TIP3      OH2            18.3892947947       20.3018326555       22.7690559638  TIP3      1718            0.0000000000
     18621      1864  TIP3      H1             17.9537946961       21.0958634682       23.1377638664  TIP3      1718            0.0000000000
     18622      1864  TIP3      H2             17.7773033570       19.6358684479       23.1342669848  TIP3      1718            0.0000000000
     18623      1865  TIP3      OH2             8.3211339536       16.7033683471       34.8669475615  TIP3      1719            0.0000000000
     18624      1865  TIP3      H1              8.2400586166       16.1784864652       35.6854615968  TIP3      1719            0.0000000000
     18625      1865  TIP3      H2              7.7075071418       16.2695861053       34.2493776685  TIP3      1719            0.0000000000
     18626      1866  TIP3      OH2            15.5749494654       16.3515390566       36.2118806748  TIP3      1720            0.0000000000
     18627      1866  TIP3      H1             15.5735903632       16.5544038665       35.2459333018  TIP3      1720            0.0000000000
     18628      1866  TIP3      H2             16.3702966401       15.7736952451       36.2819926538  TIP3      1720            0.0000000000
     18629      1867  TIP3      OH2            20.3000046240       21.4670312684       35.1806922760  TIP3      1721            0.0000000000
     18630      1867  TIP3      H1             19.3717248761       21.7114132545       35.0149955744  TIP3      1721            0.0000000000
     18631      1867  TIP3      H2             20.5022703523       22.0183805709       35.9525675591  TIP3      1721            0.0000000000
     18632      1868  TIP3      OH2            25.7086360948       19.7940178417       35.9845420642  TIP3      1722            0.0000000000
     18633      1868  TIP3      H1             24.7905390655       19.9202277514       35.6551020660  TIP3      1722            0.0000000000
     18634      1868  TIP3      H2             26.1968993130       19.7519358515       35.1273842802  TIP3      1722            0.0000000000
     18635      1869  TIP3      OH2            24.0378211938       22.1867352649       23.5170248604  TIP3      1723            0.0000000000
     18636      1869  TIP3      H1             23.6256018724       21.8197618110       24.3218939522  TIP3      1723            0.0000000000
     18637      1869  TIP3      H2             24.6372928755       21.4875221630       23.2197122647  TIP3      1723            0.0000000000
     18638      1870  TIP3      OH2            21.3360872449       17.6886149003       30.6313250155  TIP3      1724            0.0000000000
     18639      1870  TIP3      H1             20.4086832863       17.4063822717       30.6745422114  TIP3      1724            0.0000000000
     18640      1870  TIP3      H2             21.7740657013       16.9050423884       30.2169978879  TIP3      1724            0.0000000000
     18641      1871  TIP3      OH2            14.0127070111       22.0319495088       26.4305223763  TIP3      1725            0.0000000000
     18642      1871  TIP3      H1             14.1194380433       22.8277932497       25.8653921565  TIP3      1725            0.0000000000
     18643      1871  TIP3      H2             13.0720340002       22.0975272307       26.6312464305  TIP3      1725            0.0000000000
     18644      1872  TIP3      OH2            14.9467715451       19.5146259789       25.9341846753  TIP3      1726            0.0000000000
     18645      1872  TIP3      H1             14.8125017686       20.4812859856       26.0646178854  TIP3      1726            0.0000000000
     18646      1872  TIP3      H2             14.3659221596       19.1748929046       26.6267473630  TIP3      1726            0.0000000000
     18647      1873  TIP3      OH2            15.5870692338       23.7178680279       33.4162111917  TIP3      1727            0.0000000000
     18648      1873  TIP3      H1             16.0920765868       24.4635114791       33.0347521948  TIP3      1727            0.0000000000
     18649      1873  TIP3      H2             16.3088488868       23.2699814640       33.8880706119  TIP3      1727            0.0000000000
     18650      1874  TIP3      OH2            13.5351738687       24.5627513453       25.5725440969  TIP3      1728            0.0000000000
     18651      1874  TIP3      H1             12.6424198930       24.6825965574       25.9538464719  TIP3      1728            0.0000000000
     18652      1874  TIP3      H2             13.9855815603       25.2916264503       26.0485891941  TIP3      1728            0.0000000000
     18653      1875  TIP3      OH2            18.7604640107       19.7222871819       32.4951183442  TIP3      1729            0.0000000000
     18654      1875  TIP3      H1             18.4312231482       19.3792665377       33.3608991423  TIP3      1729            0.0000000000
     18655      1875  TIP3      H2             19.2963664605       18.9863319684       32.1445094062  TIP3      1729            0.0000000000
     18656      1876  TIP3      OH2            21.9221361204       24.3038971465       34.8487072057  TIP3      1730            0.0000000000
     18657      1876  TIP3      H1             21.1465465710       23.7778384124       34.5760090433  TIP3      1730            0.0000000000
     18658      1876  TIP3      H2             22.0561962907       24.9212030843       34.0900512376  TIP3      1730            0.0000000000
     18659      1877  TIP3      OH2            26.1492220144       25.0219289516       22.0501933557  TIP3      1731            0.0000000000
     18660      1877  TIP3      H1             26.7992165098       25.7528172986       22.0354843617  TIP3      1731            0.0000000000
     18661      1877  TIP3      H2             25.4437486306       25.4593132444       22.5703559888  TIP3      1731            0.0000000000
     18662      1878  TIP3      OH2            10.2860302435       11.6597533075       34.4332650029  TIP3      1732            0.0000000000
     18663      1878  TIP3      H1              9.5405548976       11.9944799934       34.9854729446  TIP3      1732            0.0000000000
     18664      1878  TIP3      H2             10.3096105414       10.7385084857       34.7576743870  TIP3      1732            0.0000000000
     18665      1879  TIP3      OH2            22.2017077996       19.0250945090       24.3052236347  TIP3      1733            0.0000000000
     18666      1879  TIP3      H1             21.8644429978       18.1706160004       24.6099516046  TIP3      1733            0.0000000000
     18667      1879  TIP3      H2             23.1551075602       18.8363105233       24.1417868733  TIP3      1733            0.0000000000
     18668      1880  TIP3      OH2             9.7228564415       23.3950806525       32.6107002166  TIP3      1734            0.0000000000
     18669      1880  TIP3      H1             10.3033872216       22.6898657630       32.9366554185  TIP3      1734            0.0000000000
     18670      1880  TIP3      H2             10.0624451846       24.1573090641       33.1125493640  TIP3      1734            0.0000000000
     18671      1881  TIP3      OH2            10.8449482913       18.7658903767       22.6284242293  TIP3      1735            0.0000000000
     18672      1881  TIP3      H1             10.0475427690       19.1137638630       23.1056673093  TIP3      1735            0.0000000000
     18673      1881  TIP3      H2             11.3571571800       19.5825316381       22.5077918214  TIP3      1735            0.0000000000
     18674      1882  TIP3      OH2            18.4899067551       11.4829415270       33.4307837270  TIP3      1736            0.0000000000
     18675      1882  TIP3      H1             19.3871526062       11.6943725941       33.7332009740  TIP3      1736            0.0000000000
     18676      1882  TIP3      H2             18.4125782566       10.5270270922       33.6456010851  TIP3      1736            0.0000000000
     18677      1883  TIP3      OH2            18.8692133555       11.1457499888       25.0398243843  TIP3      1737            0.0000000000
     18678      1883  TIP3      H1             19.3036614392       11.1725555956       24.1647049462  TIP3      1737            0.0000000000
     18679      1883  TIP3      H2             19.1872466751       11.9649591229       25.4453029966  TIP3      1737            0.0000000000
     18680      1884  TIP3      OH2            17.1358831543       22.4671033693       23.7481547126  TIP3      1738            0.0000000000
     18681      1884  TIP3      H1             16.2679056870       22.9310152801       23.7903741893  TIP3      1738            0.0000000000
     18682      1884  TIP3      H2             17.3876958318       22.7923609930       22.8784113118  TIP3      1738            0.0000000000
     18683      1885  TIP3      OH2            16.1062309730       13.1735380520       25.7090137733  TIP3      1739            0.0000000000
     18684      1885  TIP3      H1             16.9893166889       13.6035746441       25.7617066268  TIP3      1739            0.0000000000
     18685      1885  TIP3      H2             16.2100640841       12.3966436985       26.2936106299  TIP3      1739            0.0000000000
     18686      1886  TIP3      OH2            17.6519369171       14.0620633310       34.1472704892  TIP3      1740            0.0000000000
     18687      1886  TIP3      H1             17.5677887963       14.2888663445       35.0991005363  TIP3      1740            0.0000000000
     18688      1886  TIP3      H2             17.8111998953       13.0974036429       34.1661280231  TIP3      1740            0.0000000000
     18689      1887  TIP3      OH2            17.4677506943        9.5774044481       26.6377817952  TIP3      1741            0.0000000000
     18690      1887  TIP3      H1             16.8793055205       10.2321812436       27.0547042093  TIP3      1741            0.0000000000
     18691      1887  TIP3      H2             18.0711533633       10.1964317661       26.1405316270  TIP3      1741            0.0000000000
     18692      1888  TIP3      OH2            14.8193126026       23.9215225030       23.3427095735  TIP3      1742            0.0000000000
     18693      1888  TIP3      H1             14.0799236807       23.5578960062       22.8249372398  TIP3      1742            0.0000000000
     18694      1888  TIP3      H2             14.3596652114       24.4042005199       24.0616917840  TIP3      1742            0.0000000000
     18695      1889  TIP3      OH2            13.1626610221       10.4119638203       23.3549546810  TIP3      1743            0.0000000000
     18696      1889  TIP3      H1             12.6220154020       10.9288176675       23.9681451149  TIP3      1743            0.0000000000
     18697      1889  TIP3      H2             13.7654481525        9.9634160884       23.9731130674  TIP3      1743            0.0000000000
     18698      1890  TIP3      OH2            23.0570698400       11.6862514391       35.4973091624  TIP3      1744            0.0000000000
     18699      1890  TIP3      H1             22.1220525991       11.7306398950       35.2014382535  TIP3      1744            0.0000000000
     18700      1890  TIP3      H2             23.5456612353       11.9264843442       34.6950178608  TIP3      1744            0.0000000000
     18701      1891  TIP3      OH2            22.3832489566       15.4627526381       29.6467461571  TIP3      1745            0.0000000000
     18702      1891  TIP3      H1             21.5259020760       14.9855736085       29.6760653694  TIP3      1745            0.0000000000
     18703      1891  TIP3      H2             22.9930268852       14.7764323619       29.9906990422  TIP3      1745            0.0000000000
     18704      1892  TIP3      OH2            22.8648270334       24.4408049858       30.6375973827  TIP3      1746            0.0000000000
     18705      1892  TIP3      H1             22.9429926210       25.1587579660       29.9675447084  TIP3      1746            0.0000000000
     18706      1892  TIP3      H2             23.8006110660       24.2670936413       30.8601360965  TIP3      1746            0.0000000000
     18707      1893  TIP3      OH2            10.4255237370        8.5439696321       29.9733637770  TIP3      1747            0.0000000000
     18708      1893  TIP3      H1             10.3682672849        8.2829688301       29.0277892824  TIP3      1747            0.0000000000
     18709      1893  TIP3      H2             10.2025535380        7.6776559806       30.3833486261  TIP3      1747            0.0000000000
     18710      1894  TIP3      OH2             9.5177565126       21.9482050623       25.3500992671  TIP3      1748            0.0000000000
     18711      1894  TIP3      H1              9.3093542892       22.0785685145       26.2859458439  TIP3      1748            0.0000000000
     18712      1894  TIP3      H2              9.4593372309       22.8557346338       24.9814549652  TIP3      1748            0.0000000000
     18713      1895  TIP3      OH2             8.5033829069       25.2529842597       37.0388896902  TIP3      1749            0.0000000000
     18714      1895  TIP3      H1              9.1343816997       25.1102231426       37.7715110083  TIP3      1749            0.0000000000
     18715      1895  TIP3      H2              8.1885973634       24.3415721732       36.8797783076  TIP3      1749            0.0000000000
     18716      1896  TIP3      OH2            13.4529425640       23.7510006879       39.0083807550  TIP3      1750            0.0000000000
     18717      1896  TIP3      H1             14.4160911117       23.6731337907       38.9006354787  TIP3      1750            0.0000000000
     18718      1896  TIP3      H2             13.1515349641       23.3051562614       38.1883091022  TIP3      1750            0.0000000000
     18719      1897  TIP3      OH2            19.6440020956       22.8425500961       37.5437989699  TIP3      1751            0.0000000000
     18720      1897  TIP3      H1             19.4621045149       21.9239802038       37.8552240838  TIP3      1751            0.0000000000
     18721      1897  TIP3      H2             20.5003607784       22.9603415994       38.0078061684  TIP3      1751            0.0000000000
     18722      1898  TIP3      OH2             8.4293593432       18.7549283054       38.0478739759  TIP3      1752            0.0000000000
     18723      1898  TIP3      H1              8.0170490409       17.8788000255       37.9747042809  TIP3      1752            0.0000000000
     18724      1898  TIP3      H2              7.9712500998       19.2242984919       37.3110663960  TIP3      1752            0.0000000000
     18725      1899  TIP3      OH2            15.1870073381       18.8777971067       36.9640188165  TIP3      1753            0.0000000000
     18726      1899  TIP3      H1             14.9839195624       19.5510759884       36.2780669653  TIP3      1753            0.0000000000
     18727      1899  TIP3      H2             15.2848595589       18.0171169809       36.4878547827  TIP3      1753            0.0000000000
     18728      1900  TIP3      OH2            18.7919897757       20.4054408585       20.0218871196  TIP3      1754            0.0000000000
     18729      1900  TIP3      H1             18.6952423227       20.4147403865       20.9895684195  TIP3      1754            0.0000000000
     18730      1900  TIP3      H2             19.4847377466       19.7179553306       19.8912826638  TIP3      1754            0.0000000000
     18731      1901  TIP3      OH2            20.9295942379       18.7834263569       35.0635375429  TIP3      1755            0.0000000000
     18732      1901  TIP3      H1             21.8090157025       19.2065953880       35.0273864321  TIP3      1755            0.0000000000
     18733      1901  TIP3      H2             20.3889488472       19.6044705187       35.1275553122  TIP3      1755            0.0000000000
     18734      1902  TIP3      OH2             9.7695344145       15.8889207381       37.6541915338  TIP3      1756            0.0000000000
     18735      1902  TIP3      H1             10.6539051203       15.7193731332       37.3066779588  TIP3      1756            0.0000000000
     18736      1902  TIP3      H2              9.9853709290       16.6058692770       38.2939258598  TIP3      1756            0.0000000000
     18737      1903  TIP3      OH2            14.1342476296       17.4004362142       22.6205479168  TIP3      1757            0.0000000000
     18738      1903  TIP3      H1             13.3530947240       17.1565580944       23.1527091328  TIP3      1757            0.0000000000
     18739      1903  TIP3      H2             14.8445675402       17.4558220757       23.2965558684  TIP3      1757            0.0000000000
     18740      1904  TIP3      OH2            13.1620212864       15.2835046601       34.4422879057  TIP3      1758            0.0000000000
     18741      1904  TIP3      H1             12.8078349304       16.1849124400       34.4874255158  TIP3      1758            0.0000000000
     18742      1904  TIP3      H2             13.9177818922       15.4521592377       33.8523682585  TIP3      1758            0.0000000000
     18743      1905  TIP3      OH2            18.9330709287       17.9955154179       38.2424683197  TIP3      1759            0.0000000000
     18744      1905  TIP3      H1             19.6818989216       17.5877658993       37.7620270505  TIP3      1759            0.0000000000
     18745      1905  TIP3      H2             18.5725073112       17.2349646912       38.7406181311  TIP3      1759            0.0000000000
     18746      1906  TIP3      OH2            14.4618204910       12.9920958353       35.5361660736  TIP3      1760            0.0000000000
     18747      1906  TIP3      H1             14.3806752733       12.2816375003       34.8507178713  TIP3      1760            0.0000000000
     18748      1906  TIP3      H2             14.1256276033       13.7615169326       35.0342995558  TIP3      1760            0.0000000000
     18749      1907  TIP3      OH2            14.2826716863       11.0908061546       33.6453448387  TIP3      1761            0.0000000000
     18750      1907  TIP3      H1             14.7823130093       11.1429176919       32.8041859763  TIP3      1761            0.0000000000
     18751      1907  TIP3      H2             13.3796953656       10.9031653679       33.3189641605  TIP3      1761            0.0000000000
     18752      1908  TIP3      OH2            15.6900250591       16.7839595089       33.6020095513  TIP3      1762            0.0000000000
     18753      1908  TIP3      H1             16.5368467090       16.9635551040       33.1662779596  TIP3      1762            0.0000000000
     18754      1908  TIP3      H2             15.0946873769       17.4377107096       33.1732027288  TIP3      1762            0.0000000000
     18755      1909  TIP3      OH2            20.1179591097       13.9637724248       38.6635118949  TIP3      1763            0.0000000000
     18756      1909  TIP3      H1             19.9485377291       13.0407214392       38.9058797881  TIP3      1763            0.0000000000
     18757      1909  TIP3      H2             21.0798712888       13.9783703883       38.5462672520  TIP3      1763            0.0000000000
     18758      1910  TIP3      OH2            21.5882444648       17.2756115376       37.1958181203  TIP3      1764            0.0000000000
     18759      1910  TIP3      H1             21.4202207256       17.7233730980       36.3387063814  TIP3      1764            0.0000000000
     18760      1910  TIP3      H2             22.5086120748       16.9748339131       37.0498744525  TIP3      1764            0.0000000000
     18761      1911  TIP3      OH2            12.6692521799       13.6594629140       37.8551756807  TIP3      1765            0.0000000000
     18762      1911  TIP3      H1             11.8211983149       13.3421685198       37.4840169468  TIP3      1765            0.0000000000
     18763      1911  TIP3      H2             13.2408638102       13.7478170540       37.0679937791  TIP3      1765            0.0000000000
     18764      1912  TIP3      OH2            15.5454189368        8.5657573172       33.1340385439  TIP3      1766            0.0000000000
     18765      1912  TIP3      H1             14.9876072381        9.0800321097       33.7288737189  TIP3      1766            0.0000000000
     18766      1912  TIP3      H2             15.3680226439        7.6467858410       33.4430526411  TIP3      1766            0.0000000000
     18767      1913  TIP3      OH2            16.2939829127       12.6460653118       37.5506773999  TIP3      1767            0.0000000000
     18768      1913  TIP3      H1             15.6753660339       12.5234132548       38.2991724965  TIP3      1767            0.0000000000
     18769      1913  TIP3      H2             15.6752369708       12.5275642571       36.7917931579  TIP3      1767            0.0000000000
     18770      1914  TIP3      OH2            18.8123400895       11.9786467142       36.6411753134  TIP3      1768            0.0000000000
     18771      1914  TIP3      H1             17.8616819424       11.9839477596       36.8739646142  TIP3      1768            0.0000000000
     18772      1914  TIP3      H2             19.2044960673       11.4634049877       37.3785871925  TIP3      1768            0.0000000000
     18773      1915  TIP3      OH2            20.2604026902       10.6828312944       38.5591741594  TIP3      1769            0.0000000000
     18774      1915  TIP3      H1             20.4545493363        9.7287506484       38.6742050714  TIP3      1769            0.0000000000
     18775      1915  TIP3      H2             20.0649694913       11.0006722221       39.4680537653  TIP3      1769            0.0000000000
     18776      1916  TIP3      OH2            10.4124871397       11.9751471899       37.8426519716  TIP3      1770            0.0000000000
     18777      1916  TIP3      H1             11.0487178428       11.2771744508       37.6350253721  TIP3      1770            0.0000000000
     18778      1916  TIP3      H2             10.0742064297       11.6670426324       38.7152027919  TIP3      1770            0.0000000000
     18779      1917  TIP3      OH2            14.8271247569        7.3597169681       36.5166886347  TIP3      1771            0.0000000000
     18780      1917  TIP3      H1             15.6913755448        6.9194201507       36.6621044505  TIP3      1771            0.0000000000
     18781      1917  TIP3      H2             14.5715965291        6.8189632126       35.7450619014  TIP3      1771            0.0000000000
     18782      1918  TIP3      OH2            15.0309831307        8.9453722007       39.0755114406  TIP3      1772            0.0000000000
     18783      1918  TIP3      H1             15.0305753194        8.5145477966       38.1923088852  TIP3      1772            0.0000000000
     18784      1918  TIP3      H2             14.8335880179        9.8737191791       38.8398321922  TIP3      1772            0.0000000000
     18785      1919  TIP3      OH2             9.7314670471       21.3537671176       21.4502384605  TIP3      1773            0.0000000000
     18786      1919  TIP3      H1             10.5215023513       21.8462490830       21.1493426228  TIP3      1773            0.0000000000
     18787      1919  TIP3      H2              9.7367377315       20.5861835028       20.8605930029  TIP3      1773            0.0000000000
     18788      1920  TIP3      OH2             7.2672401397       25.8966625610       26.8830470433  TIP3      1774            0.0000000000
     18789      1920  TIP3      H1              6.6137007847       25.5257045243       26.2619057041  TIP3      1774            0.0000000000
     18790      1920  TIP3      H2              7.6215447179       25.0729645124       27.2701520176  TIP3      1774            0.0000000000
     18791      1921  TIP3      OH2             8.4030151444       23.7695917488       28.3410697567  TIP3      1775            0.0000000000
     18792      1921  TIP3      H1              7.6352137019       23.2730355958       28.6753947433  TIP3      1775            0.0000000000
     18793      1921  TIP3      H2              8.6622542984       24.2588938052       29.1456010730  TIP3      1775            0.0000000000
     18794      1922  TIP3      OH2            25.5003840198       24.4153971642       31.2945558305  TIP3      1776            0.0000000000
     18795      1922  TIP3      H1             25.6647947444       24.5733283935       32.2475032004  TIP3      1776            0.0000000000
     18796      1922  TIP3      H2             25.9172148817       25.1925038035       30.8990387360  TIP3      1776            0.0000000000
     18797      1923  TIP3      OH2            25.2737233445       24.6239630359       34.0712384274  TIP3      1777            0.0000000000
     18798      1923  TIP3      H1             24.7591040566       23.8293751756       33.7818956089  TIP3      1777            0.0000000000
     18799      1923  TIP3      H2             25.7434463437       24.2512271275       34.8401131221  TIP3      1777            0.0000000000
     18800      1924  TIP3      OH2            23.9991546256       20.3932608254       38.9080710227  TIP3      1778            0.0000000000
     18801      1924  TIP3      H1             23.1614046285       20.3915877919       39.4292841356  TIP3      1778            0.0000000000
     18802      1924  TIP3      H2             24.3387085154       21.2862177496       39.1499154065  TIP3      1778            0.0000000000
     18803      1925  TIP3      OH2            24.8561983569       18.5540102961       24.1547492138  TIP3      1779            0.0000000000
     18804      1925  TIP3      H1             25.7753596832       18.8665438249       24.0848266868  TIP3      1779            0.0000000000
     18805      1925  TIP3      H2             24.9288264966       17.8045124588       24.7784300982  TIP3      1779            0.0000000000
     18806      1926  TIP3      OH2            25.3698139597       16.7933299530       26.2836062113  TIP3      1780            0.0000000000
     18807      1926  TIP3      H1             24.5425466662       16.3383969146       26.5477897312  TIP3      1780            0.0000000000
     18808      1926  TIP3      H2             25.6219035390       17.2177831954       27.1244937305  TIP3      1780            0.0000000000
     18809      1927  TIP3      OH2            25.4064212110       19.5604413272       30.8521965598  TIP3      1781            0.0000000000
     18810      1927  TIP3      H1             26.1666955986       19.2002597683       30.3615178582  TIP3      1781            0.0000000000
     18811      1927  TIP3      H2             25.5646726619       20.5229541652       30.7411302580  TIP3      1781            0.0000000000
     18812      1928  TIP3      OH2            23.7610159248       22.4908234168       33.1902206714  TIP3      1782            0.0000000000
     18813      1928  TIP3      H1             22.9123577547       22.8762610555       33.4484580671  TIP3      1782            0.0000000000
     18814      1928  TIP3      H2             23.5808770307       22.2478281842       32.2597711526  TIP3      1782            0.0000000000
     18815      1929  TIP3      OH2            23.2023461081       15.5190060158       27.1215147144  TIP3      1783            0.0000000000
     18816      1929  TIP3      H1             23.1656699308       14.5505461940       26.9558379102  TIP3      1783            0.0000000000
     18817      1929  TIP3      H2             22.9956913443       15.5232240293       28.0855584591  TIP3      1783            0.0000000000
     18818      1930  TIP3      OH2             8.2499846122       17.4744739526       30.8401186563  TIP3      1784            0.0000000000
     18819      1930  TIP3      H1              8.2569065075       17.2532522498       29.8773105856  TIP3      1784            0.0000000000
     18820      1930  TIP3      H2              9.1758607586       17.2165809488       31.0643896059  TIP3      1784            0.0000000000
     18821      1931  TIP3      OH2            24.4962824370       17.3425243726       36.3555204906  TIP3      1785            0.0000000000
     18822      1931  TIP3      H1             25.1118425313       16.9472833492       35.6921113255  TIP3      1785            0.0000000000
     18823      1931  TIP3      H2             24.8158015042       18.2589585182       36.2654871467  TIP3      1785            0.0000000000
     18824      1932  TIP3      OH2            26.0109951390       14.9802443027       37.7526067086  TIP3      1786            0.0000000000
     18825      1932  TIP3      H1             25.2878977733       15.3317841646       37.1905606931  TIP3      1786            0.0000000000
     18826      1932  TIP3      H2             26.2614824401       14.1473499509       37.2910428335  TIP3      1786            0.0000000000
     18827      1933  TIP3      OH2            22.8566877806       13.2173649631       25.9848099035  TIP3      1787            0.0000000000
     18828      1933  TIP3      H1             22.8964761038       12.2543252423       26.1411217683  TIP3      1787            0.0000000000
     18829      1933  TIP3      H2             23.3711218214       13.2318549781       25.1695363774  TIP3      1787            0.0000000000
     18830      1934  TIP3      OH2            23.7952668412       13.4753424227       30.6827493459  TIP3      1788            0.0000000000
     18831      1934  TIP3      H1             24.7661687400       13.6746920648       30.7089801776  TIP3      1788            0.0000000000
     18832      1934  TIP3      H2             23.6066627919       13.5718555866       31.6342610588  TIP3      1788            0.0000000000
     18833      1935  TIP3      OH2            23.8247023496       14.2134601059       33.3802957305  TIP3      1789            0.0000000000
     18834      1935  TIP3      H1             22.9976834043       14.4886685843       33.8396921343  TIP3      1789            0.0000000000
     18835      1935  TIP3      H2             24.3111696935       15.0615065604       33.3081639067  TIP3      1789            0.0000000000
     18836      1936  TIP3      OH2             8.2928588044       12.6199353735       36.4257017005  TIP3      1790            0.0000000000
     18837      1936  TIP3      H1              9.0246170548       12.3598073465       37.0297114346  TIP3      1790            0.0000000000
     18838      1936  TIP3      H2              7.6414103306       11.9103822397       36.6428590879  TIP3      1790            0.0000000000
     18839      1937  TIP3      OH2            26.6451527097        9.0122370552       38.7405770929  TIP3      1791            0.0000000000
     18840      1937  TIP3      H1             26.3119336875        8.1334572063       38.4538569709  TIP3      1791            0.0000000000
     18841      1937  TIP3      H2             26.4313482263        9.5653580507       37.9612897986  TIP3      1791            0.0000000000
     18842      1938  TIP3      OH2            23.2214808323       10.6879143187       25.3476486194  TIP3      1792            0.0000000000
     18843      1938  TIP3      H1             23.4860577727       10.1361708782       26.1140011482  TIP3      1792            0.0000000000
     18844      1938  TIP3      H2             22.6217727596       10.0826952205       24.8749094426  TIP3      1792            0.0000000000
     18845      1939  TIP3      OH2             9.2158400205       10.9725607647       30.4367589406  TIP3      1793            0.0000000000
     18846      1939  TIP3      H1              9.6069226131       10.0721959983       30.3854259580  TIP3      1793            0.0000000000
     18847      1939  TIP3      H2             10.0035525003       11.5449245714       30.5172192829  TIP3      1793            0.0000000000
     18848      1940  TIP3      OH2             7.7012181964       14.0472022812       30.7954140232  TIP3      1794            0.0000000000
     18849      1940  TIP3      H1              8.2992783396       13.7258069761       30.0921277902  TIP3      1794            0.0000000000
     18850      1940  TIP3      H2              8.1065215458       14.9038276066       30.9824949537  TIP3      1794            0.0000000000
     18851      1941  TIP3      OH2            25.3509464078       10.4823238697       36.8208884923  TIP3      1795            0.0000000000
     18852      1941  TIP3      H1             24.5065706386       10.9666953115       36.7624364059  TIP3      1795            0.0000000000
     18853      1941  TIP3      H2             25.1900436983        9.8057416001       36.1281975477  TIP3      1795            0.0000000000
     18854      1942  TIP3      OH2            25.5868662461       10.4242186382       21.9307523524  TIP3      1796            0.0000000000
     18855      1942  TIP3      H1             25.0214950485       10.3273713323       21.1465325390  TIP3      1796            0.0000000000
     18856      1942  TIP3      H2             26.1653082744        9.6383416935       21.8608280864  TIP3      1796            0.0000000000
     18857      1943  TIP3      OH2             7.7519822800       10.1464304934       24.8401851115  TIP3      1797            0.0000000000
     18858      1943  TIP3      H1              6.8904480036       10.4730317783       25.1327371427  TIP3      1797            0.0000000000
     18859      1943  TIP3      H2              7.8723165536       10.6628278599       24.0209156099  TIP3      1797            0.0000000000
     18860      1944  TIP3      OH2            22.4121696870       25.1825683783       26.7315693056  TIP3      1798            0.0000000000
     18861      1944  TIP3      H1             23.2848467696       25.1302583999       26.3070529787  TIP3      1798            0.0000000000
     18862      1944  TIP3      H2             22.5026072511       25.8571585894       27.4298316986  TIP3      1798            0.0000000000
     18863      1945  TIP3      OH2             7.8377626443        8.8814417765       33.3095830654  TIP3      1799            0.0000000000
     18864      1945  TIP3      H1              7.1237858113        8.5608952024       33.8921584268  TIP3      1799            0.0000000000
     18865      1945  TIP3      H2              7.4246128588        9.6051979935       32.8206761203  TIP3      1799            0.0000000000
     18866      1946  TIP3      OH2            10.0060396139       21.9241373683       37.2941691277  TIP3      1800            0.0000000000
     18867      1946  TIP3      H1              9.2407099795       22.4101198942       36.9675195189  TIP3      1800            0.0000000000
     18868      1946  TIP3      H2              9.8396608251       21.8187085604       38.2344126512  TIP3      1800            0.0000000000
     18869      1947  TIP3      OH2            12.8345094362       23.4838060503       33.7404854180  TIP3      1801            0.0000000000
     18870      1947  TIP3      H1             12.8242018555       24.4172987601       33.4230565159  TIP3      1801            0.0000000000
     18871      1947  TIP3      H2             13.8065500340       23.3284873122       33.7152341510  TIP3      1801            0.0000000000
     18872      1948  TIP3      OH2            16.9896798473       24.5746424635       36.3813044569  TIP3      1802            0.0000000000
     18873      1948  TIP3      H1             17.0651419742       24.3606328616       37.3285434548  TIP3      1802            0.0000000000
     18874      1948  TIP3      H2             17.8170089737       25.0636233447       36.2146234265  TIP3      1802            0.0000000000
     18875      1949  TIP3      OH2            19.2190763456       26.3008703842       35.5386668977  TIP3      1803            0.0000000000
     18876      1949  TIP3      H1             19.8707364676       25.6167779744       35.3182578140  TIP3      1803            0.0000000000
     18877      1949  TIP3      H2             19.5164034752       26.5864062901       36.4261324356  TIP3      1803            0.0000000000
     18878      1950  TIP3      OH2            24.6101511569        8.4698177542       35.0659316098  TIP3      1804            0.0000000000
     18879      1950  TIP3      H1             23.7581703380        8.6719927703       34.6608827467  TIP3      1804            0.0000000000
     18880      1950  TIP3      H2             24.6068258507        7.4966366325       35.0244818655  TIP3      1804            0.0000000000
     18881      1951  TIP3      OH2            10.3846932320       26.3623264498       33.4163637474  TIP3      1805            0.0000000000
     18882      1951  TIP3      H1              9.6186896215       26.7881514315       32.9660313898  TIP3      1805            0.0000000000
     18883      1951  TIP3      H2             10.3015274461       26.7911404530       34.2839126044  TIP3      1805            0.0000000000
     18884      1952  TIP3      OH2            12.7458197993       25.8615633791       32.3808182714  TIP3      1806            0.0000000000
     18885      1952  TIP3      H1             11.7846988515       26.0253012341       32.5498243490  TIP3      1806            0.0000000000
     18886      1952  TIP3      H2             12.9108960346       26.5057475750       31.6656602937  TIP3      1806            0.0000000000
     18887      1953  TIP3      OH2            17.2105393815       25.6669708423       32.1700561367  TIP3      1807            0.0000000000
     18888      1953  TIP3      H1             16.8925631738       25.8831215732       31.2721769177  TIP3      1807            0.0000000000
     18889      1953  TIP3      H2             17.4459891605       26.5622118483       32.4940701236  TIP3      1807            0.0000000000
     18890      1954  TIP3      OH2            19.5417477435       24.4069059034       33.1539045890  TIP3      1808            0.0000000000
     18891      1954  TIP3      H1             18.7922113092       24.8836866596       32.7391262863  TIP3      1808            0.0000000000
     18892      1954  TIP3      H2             20.2829480419       24.9669599522       32.8798497766  TIP3      1808            0.0000000000
     18893      1955  TIP3      OH2            22.4459005984       25.9758026332       32.7703571527  TIP3      1809            0.0000000000
     18894      1955  TIP3      H1             22.1981694651       26.8745660927       32.5090724993  TIP3      1809            0.0000000000
     18895      1955  TIP3      H2             22.6217622261       25.5570208044       31.8983863694  TIP3      1809            0.0000000000
     18896      1956  TIP3      OH2            10.0987796398       24.8622388053       30.3410805416  TIP3      1810            0.0000000000
     18897      1956  TIP3      H1              9.8566816899       24.3128590561       31.1182457506  TIP3      1810            0.0000000000
     18898      1956  TIP3      H2             10.9504850163       24.4545396279       30.0574930079  TIP3      1810            0.0000000000
     18899      1957  TIP3      OH2            12.3511905810       23.8634146263       29.1479656349  TIP3      1811            0.0000000000
     18900      1957  TIP3      H1             12.1426403853       22.9120082123       29.3154230110  TIP3      1811            0.0000000000
     18901      1957  TIP3      H2             13.3130858932       23.8913490093       29.3295107446  TIP3      1811            0.0000000000
     18902      1958  TIP3      OH2            14.9564068291       23.8432488526       30.0859489772  TIP3      1812            0.0000000000
     18903      1958  TIP3      H1             15.0400105136       22.8714568996       30.1631124798  TIP3      1812            0.0000000000
     18904      1958  TIP3      H2             14.8922546260       24.1135614742       31.0127875938  TIP3      1812            0.0000000000
     18905      1959  TIP3      OH2            17.6210702422        8.9425064028       29.4632488520  TIP3      1813            0.0000000000
     18906      1959  TIP3      H1             16.7635762607        8.4640192740       29.5958494572  TIP3      1813            0.0000000000
     18907      1959  TIP3      H2             17.8385805133        8.6955876149       28.5555023909  TIP3      1813            0.0000000000
     18908      1960  TIP3      OH2            23.1725839831        8.2416380724       29.3225994264  TIP3      1814            0.0000000000
     18909      1960  TIP3      H1             23.8292211050        8.6736335694       28.7226192184  TIP3      1814            0.0000000000
     18910      1960  TIP3      H2             22.3286473757        8.4994622080       28.8833613168  TIP3      1814            0.0000000000
     18911      1961  TIP3      OH2            24.7082974316        9.0552940703       27.2972784848  TIP3      1815            0.0000000000
     18912      1961  TIP3      H1             25.3642353370        8.4706567204       26.8434150001  TIP3      1815            0.0000000000
     18913      1961  TIP3      H2             25.3154127674        9.7784291974       27.5952067051  TIP3      1815            0.0000000000
     18914      1962  TIP3      OH2            10.0374522244        7.9988159409       27.1893447920  TIP3      1816            0.0000000000
     18915      1962  TIP3      H1              9.1862769617        7.9318720649       26.7090913078  TIP3      1816            0.0000000000
     18916      1962  TIP3      H2             10.4642573711        7.1330380136       26.9773263700  TIP3      1816            0.0000000000
     18917      1963  TIP3      OH2             8.8295317941        8.6108443647       22.5979526315  TIP3      1817            0.0000000000
     18918      1963  TIP3      H1              9.5948841286        9.1677136002       22.3553920003  TIP3      1817            0.0000000000
     18919      1963  TIP3      H2              8.5994928081        8.9637258207       23.4839671290  TIP3      1817            0.0000000000
     18920      1964  TIP3      OH2            14.5834507739        8.8812855622       26.6012572394  TIP3      1818            0.0000000000
     18921      1964  TIP3      H1             15.5066918587        8.6082749982       26.5207544706  TIP3      1818            0.0000000000
     18922      1964  TIP3      H2             14.5235196362        9.0256147633       27.5576539639  TIP3      1818            0.0000000000
     18923      1965  TIP3      OH2            20.8014835249        8.6166659754       28.0850534505  TIP3      1819            0.0000000000
     18924      1965  TIP3      H1             20.2027454500        8.7998274026       27.3494753125  TIP3      1819            0.0000000000
     18925      1965  TIP3      H2             20.3264706297        7.8446788087       28.4911535379  TIP3      1819            0.0000000000
     18926      1966  TIP3      OH2            21.3535974986        8.0327863548       23.3237473258  TIP3      1820            0.0000000000
     18927      1966  TIP3      H1             20.8054303055        8.1850695086       22.5277671210  TIP3      1820            0.0000000000
     18928      1966  TIP3      H2             20.9710921115        7.1912465168       23.6655306686  TIP3      1820            0.0000000000
     18929      1967  TIP3      OH2             8.9776894046       24.2707627784       24.1018638485  TIP3      1821            0.0000000000
     18930      1967  TIP3      H1              8.6113704554       23.8899611718       23.2730670077  TIP3      1821            0.0000000000
     18931      1967  TIP3      H2              8.4707575937       25.0844393162       24.1938326458  TIP3      1821            0.0000000000
     18932      1968  TIP3      OH2            10.9589177587       10.1089933569       21.5976510580  TIP3      1822            0.0000000000
     18933      1968  TIP3      H1             11.3333302390        9.7854781279       20.7701723932  TIP3      1822            0.0000000000
     18934      1968  TIP3      H2             11.7082886530        9.9766065923       22.2098106698  TIP3      1822            0.0000000000
     18935      1969  TIP3      OH2            24.3437465566       24.6023114262       24.8292990687  TIP3      1823            0.0000000000
     18936      1969  TIP3      H1             24.2572233751       23.7803775483       24.2873957319  TIP3      1823            0.0000000000
     18937      1969  TIP3      H2             24.0938217099       25.3001417931       24.1817315037  TIP3      1823            0.0000000000
     18938      1970  TIP3      OH2             9.9505535775        9.0522537143       36.1094733500  TIP3      1824            0.0000000000
     18939      1970  TIP3      H1              9.3260341096        8.3169622475       36.2817530586  TIP3      1824            0.0000000000
     18940      1970  TIP3      H2             10.5466867604        8.9582898145       36.8880052396  TIP3      1824            0.0000000000
     18941      1971  TIP3      OH2            11.9359179565        8.5391653299       38.0227240464  TIP3      1825            0.0000000000
     18942      1971  TIP3      H1             12.7825798738        8.1333520313       37.7465916131  TIP3      1825            0.0000000000
     18943      1971  TIP3      H2             11.6219210916        7.8552331319       38.6648651761  TIP3      1825            0.0000000000
     18944      1972  TIP3      OH2            20.3365583401        7.8751883349       38.8293142049  TIP3      1826            0.0000000000
     18945      1972  TIP3      H1             20.6186104277        7.4154018395       39.6483335950  TIP3      1826            0.0000000000
     18946      1972  TIP3      H2             21.2180234370        7.9423325694       38.3876149212  TIP3      1826            0.0000000000
     18947      1973  TIP3      OH2            23.7397926544       23.6846279765       36.8392194224  TIP3      1827            0.0000000000
     18948      1973  TIP3      H1             23.0757726841       23.8426719108       36.1264036524  TIP3      1827            0.0000000000
     18949      1973  TIP3      H2             23.5955050374       24.4626103017       37.4067071854  TIP3      1827            0.0000000000
     18950      1974  TIP3      OH2            29.1008270420       16.8689590053       32.5337494950  TIP3      1828            0.0000000000
     18951      1974  TIP3      H1             29.3169011199       15.9205543964       32.4648164119  TIP3      1828            0.0000000000
     18952      1974  TIP3      H2             29.8153950936       17.2521203939       31.9778787000  TIP3      1828            0.0000000000
     18953      1975  TIP3      OH2            26.5939337295       14.4313641470       25.5897343005  TIP3      1829            0.0000000000
     18954      1975  TIP3      H1             26.4440054916       15.3629701414       25.8612255672  TIP3      1829            0.0000000000
     18955      1975  TIP3      H2             25.9794176238       13.9598259396       26.1593899528  TIP3      1829            0.0000000000
     18956      1976  TIP3      OH2            28.0202565590       16.8648913656       28.1262108397  TIP3      1830            0.0000000000
     18957      1976  TIP3      H1             27.8951552675       15.9041475118       28.2556669127  TIP3      1830            0.0000000000
     18958      1976  TIP3      H2             28.9721880123       16.9205174769       27.9255562956  TIP3      1830            0.0000000000
     18959      1977  TIP3      OH2            28.3048881013       14.3886838175       29.0609289372  TIP3      1831            0.0000000000
     18960      1977  TIP3      H1             29.0051506222       14.2201750420       29.7258321206  TIP3      1831            0.0000000000
     18961      1977  TIP3      H2             28.6891382347       13.9549241626       28.2650064002  TIP3      1831            0.0000000000
     18962      1978  TIP3      OH2            28.0415715685       20.1623667302       25.0567660238  TIP3      1832            0.0000000000
     18963      1978  TIP3      H1             27.9526752830       20.3525234460       24.1076424849  TIP3      1832            0.0000000000
     18964      1978  TIP3      H2             28.1326333117       21.0558982082       25.4367478427  TIP3      1832            0.0000000000
     18965      1979  TIP3      OH2            26.9759372735       19.3634535812       33.6506203966  TIP3      1833            0.0000000000
     18966      1979  TIP3      H1             26.4497418435       19.3733427845       32.8360588469  TIP3      1833            0.0000000000
     18967      1979  TIP3      H2             27.4525420148       18.5249849122       33.5297774365  TIP3      1833            0.0000000000
     18968      1980  TIP3      OH2            26.5689765653       21.9531798529       30.5928156008  TIP3      1834            0.0000000000
     18969      1980  TIP3      H1             27.3244210623       21.8714939437       31.1956527238  TIP3      1834            0.0000000000
     18970      1980  TIP3      H2             26.2630941761       22.8538458177       30.8105532314  TIP3      1834            0.0000000000
     18971      1981  TIP3      OH2            29.4389453931       20.9160332029       34.0729265189  TIP3      1835            0.0000000000
     18972      1981  TIP3      H1             29.7936955096       20.4997816299       34.8934497790  TIP3      1835            0.0000000000
     18973      1981  TIP3      H2             28.5091920689       20.6337681563       34.0900431462  TIP3      1835            0.0000000000
     18974      1982  TIP3      OH2            29.5198803446       13.9561568618       34.2573131971  TIP3      1836            0.0000000000
     18975      1982  TIP3      H1             29.9606991530       13.5039799386       35.0187024336  TIP3      1836            0.0000000000
     18976      1982  TIP3      H2             29.3003500574       13.1826372062       33.7107805293  TIP3      1836            0.0000000000
     18977      1983  TIP3      OH2            26.3485218739       11.1002348863       27.9526587813  TIP3      1837            0.0000000000
     18978      1983  TIP3      H1             26.9438995309       10.8680413227       28.6905092044  TIP3      1837            0.0000000000
     18979      1983  TIP3      H2             26.9523299306       11.3003090376       27.2196268001  TIP3      1837            0.0000000000
     18980      1984  TIP3      OH2            28.8306115174       13.2519304915       26.5537438667  TIP3      1838            0.0000000000
     18981      1984  TIP3      H1             28.0425523497       13.2371022584       25.9812800369  TIP3      1838            0.0000000000
     18982      1984  TIP3      H2             29.0317941707       12.3086830536       26.7642212862  TIP3      1838            0.0000000000
     18983      1985  TIP3      OH2            29.6833723752       19.5401028670       36.4523580177  TIP3      1839            0.0000000000
     18984      1985  TIP3      H1             30.3887098752       19.4140158041       37.1135262564  TIP3      1839            0.0000000000
     18985      1985  TIP3      H2             28.8829795853       19.6303511710       37.0072214296  TIP3      1839            0.0000000000
     18986      1986  TIP3      OH2            26.7129955337       16.7229730863       35.0156461377  TIP3      1840            0.0000000000
     18987      1986  TIP3      H1             27.2847603803       16.1896776374       35.5885736716  TIP3      1840            0.0000000000
     18988      1986  TIP3      H2             27.0191528510       16.4771166140       34.1289049267  TIP3      1840            0.0000000000
     18989      1987  TIP3      OH2            28.4244841877       11.2458484069       33.7223344529  TIP3      1841            0.0000000000
     18990      1987  TIP3      H1             27.5984333156       11.7438415724       33.5852625602  TIP3      1841            0.0000000000
     18991      1987  TIP3      H2             28.1954260791       10.6287188030       34.4375954944  TIP3      1841            0.0000000000
     18992      1988  TIP3      OH2            28.3832510529       23.1286566247       32.6036390260  TIP3      1842            0.0000000000
     18993      1988  TIP3      H1             28.9463628960       22.3509705205       32.7937614665  TIP3      1842            0.0000000000
     18994      1988  TIP3      H2             28.7236097438       23.7412886550       33.2790697090  TIP3      1842            0.0000000000
     18995      1989  TIP3      OH2            29.9512871442       18.4265314531       22.6655182241  TIP3      1843            0.0000000000
     18996      1989  TIP3      H1             29.2363047355       18.3472514520       23.2962072000  TIP3      1843            0.0000000000
     18997      1989  TIP3      H2             30.5416125859       19.0699725691       23.1046890985  TIP3      1843            0.0000000000
     18998      1990  TIP3      OH2            29.0192486707        8.5330046042       30.1407434732  TIP3      1844            0.0000000000
     18999      1990  TIP3      H1             28.8106920136        8.3028202303       29.2196573355  TIP3      1844            0.0000000000
     19000      1990  TIP3      H2             28.8130771622        7.6639486135       30.5446450912  TIP3      1844            0.0000000000
     19001      1991  TIP3      OH2            28.1889506583       22.8355420709       26.3316453448  TIP3      1845            0.0000000000
     19002      1991  TIP3      H1             27.2608479942       23.1045080510       26.3265034921  TIP3      1845            0.0000000000
     19003      1991  TIP3      H2             28.3668028163       23.0749578522       25.3996008238  TIP3      1845            0.0000000000
     19004      1992  TIP3      OH2            27.3886553923       25.0622441239       36.9776626950  TIP3      1846            0.0000000000
     19005      1992  TIP3      H1             28.0158218613       24.9222174133       37.7150204473  TIP3      1846            0.0000000000
     19006      1992  TIP3      H2             27.0203591897       24.1740926262       36.7978492438  TIP3      1846            0.0000000000
     19007      1993  TIP3      OH2            27.3250666204       18.8929552415       37.8961182221  TIP3      1847            0.0000000000
     19008      1993  TIP3      H1             27.3961512152       17.9947119514       37.5295902160  TIP3      1847            0.0000000000
     19009      1993  TIP3      H2             26.7510505918       19.3253501947       37.2249559396  TIP3      1847            0.0000000000
     19010      1994  TIP3      OH2            28.7257195559       15.8803599073       37.5290480256  TIP3      1848            0.0000000000
     19011      1994  TIP3      H1             28.2872857257       15.1432639561       37.9845654774  TIP3      1848            0.0000000000
     19012      1994  TIP3      H2             28.9475501841       16.4644693773       38.2703239198  TIP3      1848            0.0000000000
     19013      1995  TIP3      OH2            28.9516966932       11.6127234762       37.7592608048  TIP3      1849            0.0000000000
     19014      1995  TIP3      H1             28.7535365681       10.7026517815       37.4472582878  TIP3      1849            0.0000000000
     19015      1995  TIP3      H2             29.0697273815       11.3872942253       38.7109227642  TIP3      1849            0.0000000000
     19016      1996  TIP3      OH2            27.9346094754       20.5304923753       22.3478575750  TIP3      1850            0.0000000000
     19017      1996  TIP3      H1             28.8926248129       20.4282329192       22.2668432317  TIP3      1850            0.0000000000
     19018      1996  TIP3      H2             27.7370110093       20.6079528996       21.3861750105  TIP3      1850            0.0000000000
     19019      1997  TIP3      OH2            26.4528047963       25.8601153241       26.0489693996  TIP3      1851            0.0000000000
     19020      1997  TIP3      H1             25.6761307414       25.4163261696       25.6273025207  TIP3      1851            0.0000000000
     19021      1997  TIP3      H2             26.5418701711       25.3225280455       26.8682190158  TIP3      1851            0.0000000000
     19022      1998  TIP3      OH2            26.6527970303       24.2566699105       28.2427811040  TIP3      1852            0.0000000000
     19023      1998  TIP3      H1             26.5608003673       23.2931626893       28.2074795637  TIP3      1852            0.0000000000
     19024      1998  TIP3      H2             27.3573287980       24.3231813491       28.9222512093  TIP3      1852            0.0000000000
     19025      1999  TIP3      OH2            27.3365195382       17.5494320917       30.6598559761  TIP3      1853            0.0000000000
     19026      1999  TIP3      H1             27.7259116433       17.3596997506       29.7810227167  TIP3      1853            0.0000000000
     19027      1999  TIP3      H2             28.1160711538       17.4886251768       31.2474165396  TIP3      1853            0.0000000000
     19028      2000  TIP3      OH2            26.9024701896       12.7339209663       36.6020583838  TIP3      1854            0.0000000000
     19029      2000  TIP3      H1             27.8023093798       12.4800328137       36.9304690330  TIP3      1854            0.0000000000
     19030      2000  TIP3      H2             26.3975211400       11.9264150071       36.8208149537  TIP3      1854            0.0000000000
     19031      2001  TIP3      OH2            28.3975551032       11.2042806550       30.1881361861  TIP3      1855            0.0000000000
     19032      2001  TIP3      H1             28.5987990000       10.2514067010       30.0427959400  TIP3      1855            0.0000000000
     19033      2001  TIP3      H2             29.2898064546       11.5864270765       30.0630219146  TIP3      1855            0.0000000000
     19034      2002  TIP3      OH2            26.3001567839       14.1470961016       30.8786792502  TIP3      1856            0.0000000000
     19035      2002  TIP3      H1             26.7233847792       13.5892879888       30.2002707638  TIP3      1856            0.0000000000
     19036      2002  TIP3      H2             26.8979975778       14.9137771245       30.8023615319  TIP3      1856            0.0000000000
     19037      2003  TIP3      OH2            26.1004432435       10.8048888191       24.7973526829  TIP3      1857            0.0000000000
     19038      2003  TIP3      H1             25.1625553282       10.6688616850       24.9943075550  TIP3      1857            0.0000000000
     19039      2003  TIP3      H2             26.2109127905       10.4390832426       23.9023616809  TIP3      1857            0.0000000000
     19040      2004  TIP3      OH2            26.6518269106        8.8210477381       33.0723015168  TIP3      1858            0.0000000000
     19041      2004  TIP3      H1             25.9982016621        8.6581166808       33.7873402813  TIP3      1858            0.0000000000
     19042      2004  TIP3      H2             26.1757167431        9.3639993936       32.4234538109  TIP3      1858            0.0000000000
     19043      2005  TIP3      OH2            28.7182939615       21.8993524086       37.3748998376  TIP3      1859            0.0000000000
     19044      2005  TIP3      H1             27.9792968602       22.1803771677       36.8116129891  TIP3      1859            0.0000000000
     19045      2005  TIP3      H2             28.3669337144       22.0299920845       38.2730931337  TIP3      1859            0.0000000000
     19046      2006  TIP3      OH2            29.2060807998       26.2647007136       33.5773052889  TIP3      1860            0.0000000000
     19047      2006  TIP3      H1             28.5005979671       26.4892356145       32.9510242523  TIP3      1860            0.0000000000
     19048      2006  TIP3      H2             28.8658040441       26.6829538319       34.3844859314  TIP3      1860            0.0000000000
     19049      2007  TIP3      OH2            28.4993552965       24.4918104374       30.2188944585  TIP3      1861            0.0000000000
     19050      2007  TIP3      H1             28.3336237786       23.9873008470       31.0462350878  TIP3      1861            0.0000000000
     19051      2007  TIP3      H2             29.4344965596       24.2812213882       30.0612573399  TIP3      1861            0.0000000000
     19052      2008  TIP3      OH2            28.4470776116        8.7776420050       26.9456127701  TIP3      1862            0.0000000000
     19053      2008  TIP3      H1             27.6381639508        8.3651888273       26.5637334663  TIP3      1862            0.0000000000
     19054      2008  TIP3      H2             29.1376321844        8.2344801137       26.4999886794  TIP3      1862            0.0000000000
     19055      2009  TIP3      OH2            27.4081178499        8.5447990669       22.6230780202  TIP3      1863            0.0000000000
     19056      2009  TIP3      H1             27.9359790437        9.2813063905       22.2515941256  TIP3      1863            0.0000000000
     19057      2009  TIP3      H2             28.0455751471        8.1996111470       23.2712206937  TIP3      1863            0.0000000000
     19058      2010  TIP3      OH2            27.6015190419       23.7011049499       23.9615008812  TIP3      1864            0.0000000000
     19059      2010  TIP3      H1             27.7406450519       23.5291465687       23.0151826957  TIP3      1864            0.0000000000
     19060      2010  TIP3      H2             27.2835617543       24.6200325003       23.9838835728  TIP3      1864            0.0000000000
     19061      2011  TIP3      OH2            29.4897347857       10.1444994469       21.4347681925  TIP3      1865            0.0000000000
     19062      2011  TIP3      H1             30.1022439262        9.4663653866       21.7738967365  TIP3      1865            0.0000000000
     19063      2011  TIP3      H2             29.9788331629       10.9463091255       21.6958706858  TIP3      1865            0.0000000000
     19064      2012  TIP3      OH2            28.4237357676        8.7483440633       36.4677557726  TIP3      1866            0.0000000000
     19065      2012  TIP3      H1             27.7135566545        8.0816939353       36.4255236837  TIP3      1866            0.0000000000
     19066      2012  TIP3      H2             29.1789903312        8.1455813579       36.6205235357  TIP3      1866            0.0000000000
     19067      2013  TIP3      OH2            30.2115492623       25.5250780870       21.3775089769  TIP3      1867            0.0000000000
     19068      2013  TIP3      H1             29.4816678589       26.0887027850       21.0861254618  TIP3      1867            0.0000000000
     19069      2013  TIP3      H2             29.9572986911       24.6508760585       20.9906853639  TIP3      1867            0.0000000000
     19070      2014  TIP3      OH2           -12.6691724671       29.3935533019       32.0690807780  TIP3      1868            0.0000000000
     19071      2014  TIP3      H1            -12.0440789278       30.0935583965       32.3552816985  TIP3      1868            0.0000000000
     19072      2014  TIP3      H2            -12.5056645478       29.3800124897       31.1092096351  TIP3      1868            0.0000000000
     19073      2015  TIP3      OH2           -26.3430051824       30.4593062387       32.9063608931  TIP3      1869            0.0000000000
     19074      2015  TIP3      H1            -26.4700073049       30.2959754060       31.9600621356  TIP3      1869            0.0000000000
     19075      2015  TIP3      H2            -27.1956012212       30.1851962769       33.2830425721  TIP3      1869            0.0000000000
     19076      2016  TIP3      OH2           -15.6750913719      -29.9973910335       27.5552748449  TIP3      1870            0.0000000000
     19077      2016  TIP3      H1            -15.4097806297      -30.5001304115       28.3505308918  TIP3      1870            0.0000000000
     19078      2016  TIP3      H2            -14.8185407805      -29.5912646822       27.3503091115  TIP3      1870            0.0000000000
     19079      2017  TIP3      OH2           -15.4975864484       29.2386425456       32.4993963258  TIP3      1871            0.0000000000
     19080      2017  TIP3      H1            -16.1488242965       29.5197175387       31.8235611947  TIP3      1871            0.0000000000
     19081      2017  TIP3      H2            -14.6394876494       29.4262901085       32.0685542374  TIP3      1871            0.0000000000
     19082      2018  TIP3      OH2           -22.1516053500       26.9736697682       29.6665887856  TIP3      1872            0.0000000000
     19083      2018  TIP3      H1            -22.3757770988       26.0319032255       29.5592594155  TIP3      1872            0.0000000000
     19084      2018  TIP3      H2            -23.0503755455       27.3051733272       29.9406605883  TIP3      1872            0.0000000000
     19085      2019  TIP3      OH2           -13.4438853640       26.6526307055       23.2974311260  TIP3      1873            0.0000000000
     19086      2019  TIP3      H1            -13.9567438535       27.3823797491       23.6853713612  TIP3      1873            0.0000000000
     19087      2019  TIP3      H2            -12.9351627872       27.1233338078       22.6128388107  TIP3      1873            0.0000000000
     19088      2020  TIP3      OH2           -24.4779165440       27.8372001968       30.5714886862  TIP3      1874            0.0000000000
     19089      2020  TIP3      H1            -25.3976219642       27.8060259331       30.2323465132  TIP3      1874            0.0000000000
     19090      2020  TIP3      H2            -24.4993852787       28.5555112105       31.2324748080  TIP3      1874            0.0000000000
     19091      2021  TIP3      OH2           -20.2751602217       27.7626109753       34.2267602102  TIP3      1875            0.0000000000
     19092      2021  TIP3      H1            -19.7053656362       27.2775064383       34.8599766435  TIP3      1875            0.0000000000
     19093      2021  TIP3      H2            -21.1711429025       27.4664673512       34.4863193852  TIP3      1875            0.0000000000
     19094      2022  TIP3      OH2           -17.6267787012       29.9174037751       30.9566406444  TIP3      1876            0.0000000000
     19095      2022  TIP3      H1            -18.2439200280       29.8507713511       31.7153802784  TIP3      1876            0.0000000000
     19096      2022  TIP3      H2            -17.9258529002       29.1780869157       30.4122583255  TIP3      1876            0.0000000000
     19097      2023  TIP3      OH2           -25.9309739574       29.6511008572       25.7390759853  TIP3      1877            0.0000000000
     19098      2023  TIP3      H1            -26.1352934381       28.7678998099       26.0759550918  TIP3      1877            0.0000000000
     19099      2023  TIP3      H2            -24.9863836345       29.7506742925       25.9595725952  TIP3      1877            0.0000000000
     19100      2024  TIP3      OH2           -18.4123798751       29.8427275027       33.7987861613  TIP3      1878            0.0000000000
     19101      2024  TIP3      H1            -17.5832670988       29.5895021107       34.2173410298  TIP3      1878            0.0000000000
     19102      2024  TIP3      H2            -19.0102980220       29.0876969718       33.9637873940  TIP3      1878            0.0000000000
     19103      2025  TIP3      OH2           -18.2604767811       29.6877318654       24.9995694286  TIP3      1879            0.0000000000
     19104      2025  TIP3      H1            -18.0018161549       30.2501176893       24.2396389907  TIP3      1879            0.0000000000
     19105      2025  TIP3      H2            -18.2522049062       30.3305937025       25.7317897656  TIP3      1879            0.0000000000
     19106      2026  TIP3      OH2           -20.2182601260       28.1282594214       26.0401286222  TIP3      1880            0.0000000000
     19107      2026  TIP3      H1            -20.5430501168       28.7411719599       26.7194447994  TIP3      1880            0.0000000000
     19108      2026  TIP3      H2            -19.4492220340       28.6517473027       25.7106637537  TIP3      1880            0.0000000000
     19109      2027  TIP3      OH2           -24.1915752917       28.5452499217       22.6822597390  TIP3      1881            0.0000000000
     19110      2027  TIP3      H1            -24.4711417724       29.4620307723       22.5471873084  TIP3      1881            0.0000000000
     19111      2027  TIP3      H2            -23.2843774211       28.6498219653       23.0234870404  TIP3      1881            0.0000000000
     19112      2028  TIP3      OH2           -27.0785044773       27.6809712152       29.9141997218  TIP3      1882            0.0000000000
     19113      2028  TIP3      H1            -27.2809147441       27.4892233825       28.9669448272  TIP3      1882            0.0000000000
     19114      2028  TIP3      H2            -27.2766703469       26.7896248877       30.2860200365  TIP3      1882            0.0000000000
     19115      2029  TIP3      OH2           -23.8723477377       29.5151390282       32.7465261724  TIP3      1883            0.0000000000
     19116      2029  TIP3      H1            -23.2282316260       30.2456896262       32.6509426519  TIP3      1883            0.0000000000
     19117      2029  TIP3      H2            -24.7240002493       29.9639901597       32.9730711767  TIP3      1883            0.0000000000
     19118      2030  TIP3      OH2           -22.9433980854       27.3684887892       34.2524811847  TIP3      1884            0.0000000000
     19119      2030  TIP3      H1            -23.1389170392       28.1517447694       33.6973939250  TIP3      1884            0.0000000000
     19120      2030  TIP3      H2            -23.4361210666       26.6858345429       33.7740139948  TIP3      1884            0.0000000000
     19121      2031  TIP3      OH2           -17.0257563613       28.8764236791       39.4030227881  TIP3      1885            0.0000000000
     19122      2031  TIP3      H1            -17.3393078109       28.1006843041       38.8950150889  TIP3      1885            0.0000000000
     19123      2031  TIP3      H2            -17.7200090738       29.0106378241       40.0717746671  TIP3      1885            0.0000000000
     19124      2032  TIP3      OH2           -22.5396400684       26.7093072220       36.8192567251  TIP3      1886            0.0000000000
     19125      2032  TIP3      H1            -21.8710043710       26.0253252058       36.5992732149  TIP3      1886            0.0000000000
     19126      2032  TIP3      H2            -22.7614531652       27.0132193757       35.9117411428  TIP3      1886            0.0000000000
     19127      2033  TIP3      OH2           -22.9395601223       28.3369222894       38.9456901966  TIP3      1887            0.0000000000
     19128      2033  TIP3      H1            -22.6915979989       27.6338787464       38.2959358082  TIP3      1887            0.0000000000
     19129      2033  TIP3      H2            -23.1145041047       29.0792399078       38.3402297167  TIP3      1887            0.0000000000
     19130      2034  TIP3      OH2           -11.3286510743       27.2675272492       38.4712089332  TIP3      1888            0.0000000000
     19131      2034  TIP3      H1            -11.0828891506       26.5362702145       37.8731525455  TIP3      1888            0.0000000000
     19132      2034  TIP3      H2            -10.9344923228       28.0117838279       37.9836216455  TIP3      1888            0.0000000000
     19133      2035  TIP3      OH2           -13.8110315602       29.3431128883       25.1559380687  TIP3      1889            0.0000000000
     19134      2035  TIP3      H1            -13.5850300207       29.1192780209       26.0773252718  TIP3      1889            0.0000000000
     19135      2035  TIP3      H2            -14.5792868228       28.7596358167       25.0037477390  TIP3      1889            0.0000000000
     19136      2036  TIP3      OH2           -29.0993313954       29.7155884351       30.0255419562  TIP3      1890            0.0000000000
     19137      2036  TIP3      H1            -28.5090093212       28.9361803952       30.1214175012  TIP3      1890            0.0000000000
     19138      2036  TIP3      H2            -28.4636915418       30.4546203983       29.9477184233  TIP3      1890            0.0000000000
     19139      2037  TIP3      OH2           -12.3267673232       29.4441364360       36.7997696367  TIP3      1891            0.0000000000
     19140      2037  TIP3      H1            -13.0526789049       29.9741222301       36.3980029233  TIP3      1891            0.0000000000
     19141      2037  TIP3      H2            -12.3201469655       28.6133783894       36.2922344498  TIP3      1891            0.0000000000
     19142      2038  TIP3      OH2           -12.0672040738       28.7171807451       21.4381458822  TIP3      1892            0.0000000000
     19143      2038  TIP3      H1            -12.6049202557       28.5588069900       20.6227540571  TIP3      1892            0.0000000000
     19144      2038  TIP3      H2            -11.7403811974       29.6080263897       21.2469692235  TIP3      1892            0.0000000000
     19145      2039  TIP3      OH2            29.7642460920       29.1704152539       25.1088280677  TIP3      1893            0.0000000000
     19146      2039  TIP3      H1             28.8152347385       29.0030724352       24.9291587750  TIP3      1893            0.0000000000
     19147      2039  TIP3      H2             30.0181477142       29.6156762729       24.2817513978  TIP3      1893            0.0000000000
     19148      2040  TIP3      OH2            30.3237819417       28.7973245722       32.7435555872  TIP3      1894            0.0000000000
     19149      2040  TIP3      H1             29.7944133237       27.9809316789       32.7903299770  TIP3      1894            0.0000000000
     19150      2040  TIP3      H2             30.1426136822       29.1410744727       31.8552292792  TIP3      1894            0.0000000000
     19151      2041  TIP3      OH2           -13.2230945422       27.0443882709       34.8974018180  TIP3      1895            0.0000000000
     19152      2041  TIP3      H1            -13.8188224380       27.2377893484       34.1587977884  TIP3      1895            0.0000000000
     19153      2041  TIP3      H2            -13.0610135401       26.0942547004       34.7238955641  TIP3      1895            0.0000000000
     19154      2042  TIP3      OH2           -19.6631669186       28.1201104498       29.5087671128  TIP3      1896            0.0000000000
     19155      2042  TIP3      H1            -20.5754799021       27.7653384341       29.3970754276  TIP3      1896            0.0000000000
     19156      2042  TIP3      H2            -19.1289152477       27.4083640349       29.1166122752  TIP3      1896            0.0000000000
     19157      2043  TIP3      OH2           -14.6695968450       26.7495724893       29.0805771503  TIP3      1897            0.0000000000
     19158      2043  TIP3      H1            -13.9957975965       27.3472306499       28.6805247175  TIP3      1897            0.0000000000
     19159      2043  TIP3      H2            -15.4887735576       27.1091224003       28.6735911087  TIP3      1897            0.0000000000
     19160      2044  TIP3      OH2           -12.8821534679       28.2272988097       27.6520115853  TIP3      1898            0.0000000000
     19161      2044  TIP3      H1            -12.3557582595       27.6156241781       27.0786534483  TIP3      1898            0.0000000000
     19162      2044  TIP3      H2            -12.1535856238       28.7245732662       28.0576500976  TIP3      1898            0.0000000000
     19163      2045  TIP3      OH2           -27.5373276613       27.3205803174       27.3218694819  TIP3      1899            0.0000000000
     19164      2045  TIP3      H1            -28.2138092738       27.1785890662       26.6409289021  TIP3      1899            0.0000000000
     19165      2045  TIP3      H2            -26.8991319397       26.6157709516       27.0789866623  TIP3      1899            0.0000000000
     19166      2046  TIP3      OH2           -28.0658242105       27.1404600350       23.6527346896  TIP3      1900            0.0000000000
     19167      2046  TIP3      H1            -27.9882255214       28.1102886052       23.6323062862  TIP3      1900            0.0000000000
     19168      2046  TIP3      H2            -29.0236475340       27.0219876148       23.7777211228  TIP3      1900            0.0000000000
     19169      2047  TIP3      OH2           -23.0914215012       26.7370302859       26.9867169047  TIP3      1901            0.0000000000
     19170      2047  TIP3      H1            -22.2898400554       26.8949786569       26.4709571028  TIP3      1901            0.0000000000
     19171      2047  TIP3      H2            -22.8932238355       27.1860995784       27.8176681464  TIP3      1901            0.0000000000
     19172      2048  TIP3      OH2           -17.1820470050       27.1465820681       27.9644850726  TIP3      1902            0.0000000000
     19173      2048  TIP3      H1            -16.9691674592       26.7758217914       27.0911338542  TIP3      1902            0.0000000000
     19174      2048  TIP3      H2            -17.6210235774       26.3881288905       28.3994648701  TIP3      1902            0.0000000000
     19175      2049  TIP3      OH2           -16.0100444634       27.5439995159       24.6190101604  TIP3      1903            0.0000000000
     19176      2049  TIP3      H1            -16.7651601916       28.1453195086       24.6600687588  TIP3      1903            0.0000000000
     19177      2049  TIP3      H2            -16.4260965105       26.6661882920       24.4417981950  TIP3      1903            0.0000000000
     19178      2050  TIP3      OH2           -21.6658493965       29.3370890733       23.7136034946  TIP3      1904            0.0000000000
     19179      2050  TIP3      H1            -21.2055945505       28.8854825673       24.4428488850  TIP3      1904            0.0000000000
     19180      2050  TIP3      H2            -21.8165669916       30.2290460433       24.0658810990  TIP3      1904            0.0000000000
     19181      2051  TIP3      OH2           -27.6637129085       27.9982145027       36.2137316972  TIP3      1905            0.0000000000
     19182      2051  TIP3      H1            -28.0550209433       27.1743080466       36.5718617280  TIP3      1905            0.0000000000
     19183      2051  TIP3      H2            -26.9066871695       28.0658153137       36.8289400299  TIP3      1905            0.0000000000
     19184      2052  TIP3      OH2           -25.7563839909       27.3954909553       38.0347301070  TIP3      1906            0.0000000000
     19185      2052  TIP3      H1            -24.8145199698       27.1980348305       37.9100034987  TIP3      1906            0.0000000000
     19186      2052  TIP3      H2            -26.1040714800       26.4952089078       38.1885260879  TIP3      1906            0.0000000000
     19187      2053  TIP3      OH2           -17.3223917778       26.4246643054       38.0020843433  TIP3      1907            0.0000000000
     19188      2053  TIP3      H1            -17.5325525726       25.6189359355       38.4998620490  TIP3      1907            0.0000000000
     19189      2053  TIP3      H2            -16.3408506220       26.3510755284       37.9306592696  TIP3      1907            0.0000000000
     19190      2054  TIP3      OH2             6.2389786770       29.5272451419       32.0526003943  TIP3      1908            0.0000000000
     19191      2054  TIP3      H1              6.8648278696       30.2053278096       32.3946745595  TIP3      1908            0.0000000000
     19192      2054  TIP3      H2              6.5863886786       29.4173172433       31.1515489156  TIP3      1908            0.0000000000
     19193      2055  TIP3      OH2            -7.9086461900       30.2694181274       32.8003214605  TIP3      1909            0.0000000000
     19194      2055  TIP3      H1             -8.3731964396       30.2629842586       31.9519478361  TIP3      1909            0.0000000000
     19195      2055  TIP3      H2             -8.4405795174       29.6631090951       33.3368280046  TIP3      1909            0.0000000000
     19196      2056  TIP3      OH2             3.3463888817      -30.0657696118       26.8345110960  TIP3      1910            0.0000000000
     19197      2056  TIP3      H1              3.4106162990      -30.7380080205       27.5325351697  TIP3      1910            0.0000000000
     19198      2056  TIP3      H2              3.6846088376      -29.3211924345       27.3565752568  TIP3      1910            0.0000000000
     19199      2057  TIP3      OH2             3.3855220629       29.0707779499       32.3997020353  TIP3      1911            0.0000000000
     19200      2057  TIP3      H1              2.7655188599       29.4764516675       31.7494459885  TIP3      1911            0.0000000000
     19201      2057  TIP3      H2              4.2524495664       29.4238376440       32.0939989754  TIP3      1911            0.0000000000
     19202      2058  TIP3      OH2            -3.2856428170       26.5357253359       30.0447997643  TIP3      1912            0.0000000000
     19203      2058  TIP3      H1             -3.4977336489       25.8184318230       29.4145849231  TIP3      1912            0.0000000000
     19204      2058  TIP3      H2             -4.1751803785       26.9553198428       30.1209065630  TIP3      1912            0.0000000000
     19205      2059  TIP3      OH2            -5.8313930212       27.6615518299       30.3961116210  TIP3      1913            0.0000000000
     19206      2059  TIP3      H1             -6.8014030793       27.7884631723       30.3544351673  TIP3      1913            0.0000000000
     19207      2059  TIP3      H2             -5.6343620856       28.2240289556       31.1717175069  TIP3      1913            0.0000000000
     19208      2060  TIP3      OH2            -1.2926543948       27.5761713928       33.9335602533  TIP3      1914            0.0000000000
     19209      2060  TIP3      H1             -0.7449437037       27.2164071897       34.6654685377  TIP3      1914            0.0000000000
     19210      2060  TIP3      H2             -2.1958960808       27.4016267942       34.2696171332  TIP3      1914            0.0000000000
     19211      2061  TIP3      OH2            -1.4280683408      -29.2505686218       21.5064066348  TIP3      1915            0.0000000000
     19212      2061  TIP3      H1             -1.8838839810      -29.6989698920       22.2477666519  TIP3      1915            0.0000000000
     19213      2061  TIP3      H2             -1.2752559270      -29.9725022681       20.8878017796  TIP3      1915            0.0000000000
     19214      2062  TIP3      OH2             1.3530148261       29.7919744619       30.7977192796  TIP3      1916            0.0000000000
     19215      2062  TIP3      H1              0.6024382973       29.6119786214       31.3921022957  TIP3      1916            0.0000000000
     19216      2062  TIP3      H2              1.3301695095       29.0229636794       30.1973913434  TIP3      1916            0.0000000000
     19217      2063  TIP3      OH2            -7.1583491182       29.2717586894       26.6313500378  TIP3      1917            0.0000000000
     19218      2063  TIP3      H1             -7.0028730076       28.3363857503       26.4359403157  TIP3      1917            0.0000000000
     19219      2063  TIP3      H2             -6.3611512070       29.7081350493       26.2512588639  TIP3      1917            0.0000000000
     19220      2064  TIP3      OH2             0.2922994313       29.7644993105       33.6254624225  TIP3      1918            0.0000000000
     19221      2064  TIP3      H1              1.2302085200       29.5631625813       33.5683645067  TIP3      1918            0.0000000000
     19222      2064  TIP3      H2             -0.1405446298       28.8866689493       33.6929197578  TIP3      1918            0.0000000000
     19223      2065  TIP3      OH2             0.4163866205       29.7545675107       24.8110073306  TIP3      1919            0.0000000000
     19224      2065  TIP3      H1             -0.4151170341       29.9894130723       24.3714983811  TIP3      1919            0.0000000000
     19225      2065  TIP3      H2              0.5046211634       30.4724150810       25.4577182446  TIP3      1919            0.0000000000
     19226      2066  TIP3      OH2            -1.4699241648       28.0681090894       26.3078248585  TIP3      1920            0.0000000000
     19227      2066  TIP3      H1             -1.7646217579       28.6955844012       26.9814717828  TIP3      1920            0.0000000000
     19228      2066  TIP3      H2             -0.7765357827       28.5880025822       25.8644551105  TIP3      1920            0.0000000000
     19229      2067  TIP3      OH2            -5.5281268802       30.0291547174       23.6296741692  TIP3      1921            0.0000000000
     19230      2067  TIP3      H1             -5.5453655816       30.6810820278       22.9018998512  TIP3      1921            0.0000000000
     19231      2067  TIP3      H2             -4.9866242474       29.3337834898       23.2279004419  TIP3      1921            0.0000000000
     19232      2068  TIP3      OH2            -8.5535194979       27.5305294173       30.3780246923  TIP3      1922            0.0000000000
     19233      2068  TIP3      H1             -8.6161914057       27.3584561306       29.4027135912  TIP3      1922            0.0000000000
     19234      2068  TIP3      H2             -8.6308502441       26.5984202683       30.6757844091  TIP3      1922            0.0000000000
     19235      2069  TIP3      OH2            -5.4114209924       29.2322330929       32.6154303746  TIP3      1923            0.0000000000
     19236      2069  TIP3      H1             -5.2869760930       29.9586571118       31.9477002220  TIP3      1923            0.0000000000
     19237      2069  TIP3      H2             -6.3171158802       29.4759290265       32.9243402533  TIP3      1923            0.0000000000
     19238      2070  TIP3      OH2            -4.0041317238       27.1219974720       34.1272618367  TIP3      1924            0.0000000000
     19239      2070  TIP3      H1             -4.3050114269       27.8995708803       33.6228424380  TIP3      1924            0.0000000000
     19240      2070  TIP3      H2             -4.3168369510       26.4052158933       33.5558267774  TIP3      1924            0.0000000000
     19241      2071  TIP3      OH2             1.2085179336       28.7376307183       38.9621310566  TIP3      1925            0.0000000000
     19242      2071  TIP3      H1              1.4412132204       27.9291872472       38.4638287038  TIP3      1925            0.0000000000
     19243      2071  TIP3      H2              1.7702599413       28.5699139333       39.7633010573  TIP3      1925            0.0000000000
     19244      2072  TIP3      OH2            -3.6302158994       26.6819726716       36.7955645602  TIP3      1926            0.0000000000
     19245      2072  TIP3      H1             -3.0058661555       25.9499097674       36.6927152039  TIP3      1926            0.0000000000
     19246      2072  TIP3      H2             -3.8945081817       26.7699252193       35.8536120483  TIP3      1926            0.0000000000
     19247      2073  TIP3      OH2            -4.3444644632       28.4745144200       38.6361619555  TIP3      1927            0.0000000000
     19248      2073  TIP3      H1             -3.9987644942       27.7865161815       38.0129371292  TIP3      1927            0.0000000000
     19249      2073  TIP3      H2             -4.2358183222       29.2577643712       38.0593228912  TIP3      1927            0.0000000000
     19250      2074  TIP3      OH2             7.1248638918       27.0647574744       38.4078168890  TIP3      1928            0.0000000000
     19251      2074  TIP3      H1              7.4129675189       26.3880078834       37.7638565802  TIP3      1928            0.0000000000
     19252      2074  TIP3      H2              7.3510841675       27.8678268053       37.9106526233  TIP3      1928            0.0000000000
     19253      2075  TIP3      OH2             5.2686092052       29.2983424940       24.6828170124  TIP3      1929            0.0000000000
     19254      2075  TIP3      H1              5.2495108493       29.2876282259       25.6569185417  TIP3      1929            0.0000000000
     19255      2075  TIP3      H2              4.3290480000       29.0951192285       24.5049763157  TIP3      1929            0.0000000000
     19256      2076  TIP3      OH2           -10.0373965800       29.8121716723       29.9310202278  TIP3      1930            0.0000000000
     19257      2076  TIP3      H1             -9.7228666646       28.8918187247       30.0748747727  TIP3      1930            0.0000000000
     19258      2076  TIP3      H2             -9.2141417576       30.2414951514       29.6046960088  TIP3      1930            0.0000000000
     19259      2077  TIP3      OH2             6.5989488624       29.4616043204       36.8111783748  TIP3      1931            0.0000000000
     19260      2077  TIP3      H1              6.4638469848       30.2968654072       36.3171888277  TIP3      1931            0.0000000000
     19261      2077  TIP3      H2              6.2126046611       28.8201338426       36.1923178971  TIP3      1931            0.0000000000
     19262      2078  TIP3      OH2           -11.1856671713       28.8495636234       24.6660612174  TIP3      1932            0.0000000000
     19263      2078  TIP3      H1            -12.1292813924       29.1061415398       24.7084059275  TIP3      1932            0.0000000000
     19264      2078  TIP3      H2            -10.8854390785       29.4372459836       23.9500880512  TIP3      1932            0.0000000000
     19265      2079  TIP3      OH2           -10.9509921835       27.7845407511       33.3344252421  TIP3      1933            0.0000000000
     19266      2079  TIP3      H1            -11.5738022023       27.3030256735       33.9044386933  TIP3      1933            0.0000000000
     19267      2079  TIP3      H2            -11.5788980193       28.2177246513       32.7268459217  TIP3      1933            0.0000000000
     19268      2080  TIP3      OH2             5.5267582193       27.1075992676       34.8671353864  TIP3      1934            0.0000000000
     19269      2080  TIP3      H1              4.9574629678       27.4888149362       34.1827614030  TIP3      1934            0.0000000000
     19270      2080  TIP3      H2              5.6068859816       26.2009869442       34.5097503960  TIP3      1934            0.0000000000
     19271      2081  TIP3      OH2            -1.2417089656       28.2085599508       29.4261618571  TIP3      1935            0.0000000000
     19272      2081  TIP3      H1             -1.9729225562       27.5827719795       29.6105068760  TIP3      1935            0.0000000000
     19273      2081  TIP3      H2             -0.5820255139       27.6310965018       29.0257210815  TIP3      1935            0.0000000000
     19274      2082  TIP3      OH2             4.4917197989       26.5088970256       28.9871667935  TIP3      1936            0.0000000000
     19275      2082  TIP3      H1              5.1645571390       27.1347750411       28.6442632068  TIP3      1936            0.0000000000
     19276      2082  TIP3      H2              3.6819513447       27.0507952284       28.9137885249  TIP3      1936            0.0000000000
     19277      2083  TIP3      OH2             6.0675220737       28.1997704055       27.4529510449  TIP3      1937            0.0000000000
     19278      2083  TIP3      H1              6.6393744962       27.4776956068       27.0942223696  TIP3      1937            0.0000000000
     19279      2083  TIP3      H2              6.7263099735       28.6852475554       27.9739323326  TIP3      1937            0.0000000000
     19280      2084  TIP3      OH2            -8.8073452646       27.1177718626       27.7767028375  TIP3      1938            0.0000000000
     19281      2084  TIP3      H1             -9.2369998896       27.3787056609       26.9443989902  TIP3      1938            0.0000000000
     19282      2084  TIP3      H2             -8.2779416632       26.3430070588       27.4710854764  TIP3      1938            0.0000000000
     19283      2085  TIP3      OH2            -9.7974509198       26.8350043418       23.1381939043  TIP3      1939            0.0000000000
     19284      2085  TIP3      H1             -9.4040267067       27.5641221062       22.6208882239  TIP3      1939            0.0000000000
     19285      2085  TIP3      H2            -10.4113997716       27.3521316255       23.7017893267  TIP3      1939            0.0000000000
     19286      2086  TIP3      OH2            -3.8451604566       26.2638855345       27.2873129600  TIP3      1940            0.0000000000
     19287      2086  TIP3      H1             -3.1330433009       26.7589654865       26.8432177817  TIP3      1940            0.0000000000
     19288      2086  TIP3      H2             -4.3712507484       26.9634633130       27.6967009514  TIP3      1940            0.0000000000
     19289      2087  TIP3      OH2             1.8208442687       27.5798546833       28.7601039719  TIP3      1941            0.0000000000
     19290      2087  TIP3      H1              1.8377097013       27.4878338681       27.7956420759  TIP3      1941            0.0000000000
     19291      2087  TIP3      H2              1.3197510656       26.7635165314       29.0059336503  TIP3      1941            0.0000000000
     19292      2088  TIP3      OH2             2.8623942068       27.9047341068       23.8527484016  TIP3      1942            0.0000000000
     19293      2088  TIP3      H1              2.1505736250       28.5069330769       24.1363561883  TIP3      1942            0.0000000000
     19294      2088  TIP3      H2              2.5125623969       27.0446602448       24.1712541121  TIP3      1942            0.0000000000
     19295      2089  TIP3      OH2            -8.0133355482       28.7921202023       22.0954381417  TIP3      1943            0.0000000000
     19296      2089  TIP3      H1             -7.5122348403       29.4208765016       21.5331505395  TIP3      1943            0.0000000000
     19297      2089  TIP3      H2             -7.6165405304       28.9866115613       22.9611772520  TIP3      1943            0.0000000000
     19298      2090  TIP3      OH2            -2.7950880628       29.8614228045       23.5908687613  TIP3      1944            0.0000000000
     19299      2090  TIP3      H1             -2.9400880240       29.2051508461       24.2953112996  TIP3      1944            0.0000000000
     19300      2090  TIP3      H2             -3.3493556650       30.6233732118       23.8638436073  TIP3      1944            0.0000000000
     19301      2091  TIP3      OH2            -8.9192142874       28.0027826423       36.5351724751  TIP3      1945            0.0000000000
     19302      2091  TIP3      H1             -9.2128810422       27.0752294876       36.5136010288  TIP3      1945            0.0000000000
     19303      2091  TIP3      H2             -8.1381074561       27.9163907629       37.1339482559  TIP3      1945            0.0000000000
     19304      2092  TIP3      OH2            -6.9036911792       27.2241980378       38.0678261211  TIP3      1946            0.0000000000
     19305      2092  TIP3      H1             -5.9703259694       26.9844584201       37.9273101287  TIP3      1946            0.0000000000
     19306      2092  TIP3      H2             -7.2522849538       26.3949361608       38.4508012224  TIP3      1946            0.0000000000
     19307      2093  TIP3      OH2             1.7318288417       26.0832800830       38.0553186804  TIP3      1947            0.0000000000
     19308      2093  TIP3      H1              1.7451985050       25.9987047257       39.0236514427  TIP3      1947            0.0000000000
     19309      2093  TIP3      H2              2.7026902256       26.0167664924       37.8845281469  TIP3      1947            0.0000000000
     19310      2094  TIP3      OH2            25.3853826156       29.8392131016       31.8776632364  TIP3      1948            0.0000000000
     19311      2094  TIP3      H1             26.0420188219       30.4734185404       32.2186851949  TIP3      1948            0.0000000000
     19312      2094  TIP3      H2             25.8214450823       29.6068984540       31.0412911618  TIP3      1948            0.0000000000
     19313      2095  TIP3      OH2            10.9365554175       29.4513206122       32.7426166877  TIP3      1949            0.0000000000
     19314      2095  TIP3      H1             10.5680366129       29.9894060587       32.0265007228  TIP3      1949            0.0000000000
     19315      2095  TIP3      H2             10.2045621294       29.4162842303       33.3675420624  TIP3      1949            0.0000000000
     19316      2096  TIP3      OH2            22.1959743358       29.5276409485       27.4915182688  TIP3      1950            0.0000000000
     19317      2096  TIP3      H1             22.8128533992       29.7148076561       28.2292137833  TIP3      1950            0.0000000000
     19318      2096  TIP3      H2             21.8295314881       30.4163330505       27.3934669089  TIP3      1950            0.0000000000
     19319      2097  TIP3      OH2            22.6632773364       29.5007184035       32.5244143581  TIP3      1951            0.0000000000
     19320      2097  TIP3      H1             22.0414291923       29.7850239872       31.8253068279  TIP3      1951            0.0000000000
     19321      2097  TIP3      H2             23.5056921170       29.5797367685       32.0251315355  TIP3      1951            0.0000000000
     19322      2098  TIP3      OH2            15.7232168813       26.8662309528       29.8341149696  TIP3      1952            0.0000000000
     19323      2098  TIP3      H1             15.6142133751       25.9749441246       29.4560859964  TIP3      1952            0.0000000000
     19324      2098  TIP3      H2             14.7787619787       27.1200112825       29.9924999838  TIP3      1952            0.0000000000
     19325      2099  TIP3      OH2            24.1660813841       26.6048916428       23.1067202083  TIP3      1953            0.0000000000
     19326      2099  TIP3      H1             23.2757121422       26.8172323063       23.4702443188  TIP3      1953            0.0000000000
     19327      2099  TIP3      H2             24.5042793022       27.5158716734       23.0186815558  TIP3      1953            0.0000000000
     19328      2100  TIP3      OH2            13.1472262835       27.7294727907       30.2666116141  TIP3      1954            0.0000000000
     19329      2100  TIP3      H1             12.1968916238       27.5982959934       30.0576583613  TIP3      1954            0.0000000000
     19330      2100  TIP3      H2             13.0861201574       28.4690871212       30.8978747416  TIP3      1954            0.0000000000
     19331      2101  TIP3      OH2            17.2796665233       27.8015910179       34.2216286432  TIP3      1955            0.0000000000
     19332      2101  TIP3      H1             17.8546497965       27.2582719119       34.8052299703  TIP3      1955            0.0000000000
     19333      2101  TIP3      H2             16.3846501787       27.4329492467       34.3516446214  TIP3      1955            0.0000000000
     19334      2102  TIP3      OH2            20.4111019365       29.9000231950       30.8926955656  TIP3      1956            0.0000000000
     19335      2102  TIP3      H1             19.9597056297       30.0637482699       31.7447380840  TIP3      1956            0.0000000000
     19336      2102  TIP3      H2             19.8203495093       29.2046708708       30.5507943349  TIP3      1956            0.0000000000
     19337      2103  TIP3      OH2            11.6492978687       29.5927841287       25.7446477599  TIP3      1957            0.0000000000
     19338      2103  TIP3      H1             11.4520629649       28.7544769330       26.2081583930  TIP3      1957            0.0000000000
     19339      2103  TIP3      H2             12.5776809761       29.7668461577       26.0180790204  TIP3      1957            0.0000000000
     19340      2104  TIP3      OH2            19.4488691114       29.9208439526       33.6013378393  TIP3      1958            0.0000000000
     19341      2104  TIP3      H1             20.2722873859       29.6888402347       34.0585957070  TIP3      1958            0.0000000000
     19342      2104  TIP3      H2             18.7990835827       29.2355742689       33.8636618696  TIP3      1958            0.0000000000
     19343      2105  TIP3      OH2            19.4245596145      -30.4135211231       24.9109298494  TIP3      1959            0.0000000000
     19344      2105  TIP3      H1             19.1378015597      -30.1234269154       24.0337279918  TIP3      1959            0.0000000000
     19345      2105  TIP3      H2             19.4039158724      -29.5945811819       25.4563673284  TIP3      1959            0.0000000000
     19346      2106  TIP3      OH2            17.5837388585       28.4049390772       26.2984492959  TIP3      1960            0.0000000000
     19347      2106  TIP3      H1             17.0306168404       29.1377297921       26.6112661417  TIP3      1960            0.0000000000
     19348      2106  TIP3      H2             18.4665957869       28.8247282789       26.3184073958  TIP3      1960            0.0000000000
     19349      2107  TIP3      OH2            13.5324966194       29.7847316760       22.6669241033  TIP3      1961            0.0000000000
     19350      2107  TIP3      H1             13.4167289896       30.4591615796       23.3494425070  TIP3      1961            0.0000000000
     19351      2107  TIP3      H2             14.2697675697       29.2716355343       23.0385255117  TIP3      1961            0.0000000000
     19352      2108  TIP3      OH2            10.4868578937       27.4152250192       29.8687167658  TIP3      1962            0.0000000000
     19353      2108  TIP3      H1             10.5817145011       27.3600739455       28.8868773793  TIP3      1962            0.0000000000
     19354      2108  TIP3      H2             10.2467714523       26.4776452717       30.0573199922  TIP3      1962            0.0000000000
     19355      2109  TIP3      OH2            13.6369709964       29.3330877681       32.5644155005  TIP3      1963            0.0000000000
     19356      2109  TIP3      H1             13.7343502533       30.1326208312       31.9969591419  TIP3      1963            0.0000000000
     19357      2109  TIP3      H2             12.6946605804       29.4048350463       32.8552901060  TIP3      1963            0.0000000000
     19358      2110  TIP3      OH2            14.4762544877       27.3996851442       34.3584429555  TIP3      1964            0.0000000000
     19359      2110  TIP3      H1             14.3424816750       28.2066703762       33.8150197708  TIP3      1964            0.0000000000
     19360      2110  TIP3      H2             14.0323300933       26.7442230445       33.7905273638  TIP3      1964            0.0000000000
     19361      2111  TIP3      OH2            20.4802672440       28.9574660012       39.1860110467  TIP3      1965            0.0000000000
     19362      2111  TIP3      H1             20.2710606171       28.1196059070       38.7246993569  TIP3      1965            0.0000000000
     19363      2111  TIP3      H2             19.7146420633       29.0879657789       39.7735453105  TIP3      1965            0.0000000000
     19364      2112  TIP3      OH2            15.4179362057       26.7680943387       36.8272432707  TIP3      1966            0.0000000000
     19365      2112  TIP3      H1             15.7625996875       25.8822896118       36.5945028481  TIP3      1966            0.0000000000
     19366      2112  TIP3      H2             15.0604730114       27.0657537559       35.9707008036  TIP3      1966            0.0000000000
     19367      2113  TIP3      OH2            14.6979900000       28.4698707055       38.8078276996  TIP3      1967            0.0000000000
     19368      2113  TIP3      H1             15.0519472179       27.8216241196       38.1435678869  TIP3      1967            0.0000000000
     19369      2113  TIP3      H2             14.6560852014       29.2697807895       38.2518003662  TIP3      1967            0.0000000000
     19370      2114  TIP3      OH2            25.9311753139       27.1296563026       38.3043251364  TIP3      1968            0.0000000000
     19371      2114  TIP3      H1             26.4098458068       26.3304425114       38.0057779420  TIP3      1968            0.0000000000
     19372      2114  TIP3      H2             26.3243190494       27.7948277005       37.7235448324  TIP3      1968            0.0000000000
     19373      2115  TIP3      OH2            23.5939463259       28.3902786866       25.1523280596  TIP3      1969            0.0000000000
     19374      2115  TIP3      H1             23.7220503399       28.3038479249       26.1168907329  TIP3      1969            0.0000000000
     19375      2115  TIP3      H2             22.6333327685       28.2906392898       25.0273885604  TIP3      1969            0.0000000000
     19376      2116  TIP3      OH2             8.6989943583       29.5354023470       29.9624259264  TIP3      1970            0.0000000000
     19377      2116  TIP3      H1              9.2384355585       28.7237211599       30.1038951908  TIP3      1970            0.0000000000
     19378      2116  TIP3      H2              9.3790674113       30.1698657320       29.6797012535  TIP3      1970            0.0000000000
     19379      2117  TIP3      OH2            25.2249736714       29.5030639331       36.6785799879  TIP3      1971            0.0000000000
     19380      2117  TIP3      H1             24.7389412114       30.0492824003       36.0349915577  TIP3      1971            0.0000000000
     19381      2117  TIP3      H2             25.1640582175       28.6186757846       36.2913098931  TIP3      1971            0.0000000000
     19382      2118  TIP3      OH2             7.9093786834       28.8553208743       24.6656564041  TIP3      1972            0.0000000000
     19383      2118  TIP3      H1              6.9357071895       28.9555860136       24.7618151029  TIP3      1972            0.0000000000
     19384      2118  TIP3      H2              8.0419401964       29.3479858541       23.8310373937  TIP3      1972            0.0000000000
     19385      2119  TIP3      OH2             7.9588316780       27.4545423368       33.0921494300  TIP3      1973            0.0000000000
     19386      2119  TIP3      H1              7.3779749598       27.0437809754       33.7517990096  TIP3      1973            0.0000000000
     19387      2119  TIP3      H2              7.3956844156       28.1743590859       32.7682468863  TIP3      1973            0.0000000000
     19388      2120  TIP3      OH2            24.5195084169       27.1435050354       34.8338891704  TIP3      1974            0.0000000000
     19389      2120  TIP3      H1             23.9614390670       27.3189987697       34.0598503783  TIP3      1974            0.0000000000
     19390      2120  TIP3      H2             24.6754348469       26.1804670761       34.6962698856  TIP3      1974            0.0000000000
     19391      2121  TIP3      OH2            18.2712074962       28.0132949878       30.0421661495  TIP3      1975            0.0000000000
     19392      2121  TIP3      H1             17.3704494496       27.7292926499       29.7740695093  TIP3      1975            0.0000000000
     19393      2121  TIP3      H2             18.7938008959       27.3615495731       29.5486975717  TIP3      1975            0.0000000000
     19394      2122  TIP3      OH2            22.8302384500       26.6533720810       28.9809238935  TIP3      1976            0.0000000000
     19395      2122  TIP3      H1             23.5980122331       27.0865766068       28.5509410442  TIP3      1976            0.0000000000
     19396      2122  TIP3      H2             22.1691442042       27.3525279802       28.8466993536  TIP3      1976            0.0000000000
     19397      2123  TIP3      OH2            24.8596886349       27.6883072924       27.5280038044  TIP3      1977            0.0000000000
     19398      2123  TIP3      H1             25.4510703169       27.1649631081       26.9450365518  TIP3      1977            0.0000000000
     19399      2123  TIP3      H2             25.4836973171       28.2978353086       27.9508193250  TIP3      1977            0.0000000000
     19400      2124  TIP3      OH2            10.4318433221       27.5674960615       27.1939796264  TIP3      1978            0.0000000000
     19401      2124  TIP3      H1              9.6824393419       27.6792703343       26.5859821283  TIP3      1978            0.0000000000
     19402      2124  TIP3      H2             10.6640333792       26.6168851174       27.0502304171  TIP3      1978            0.0000000000
     19403      2125  TIP3      OH2            14.6274990118       26.6787041341       26.8495563396  TIP3      1979            0.0000000000
     19404      2125  TIP3      H1             15.5033223508       26.8660506626       26.4607109380  TIP3      1979            0.0000000000
     19405      2125  TIP3      H2             14.4462334193       27.4689822679       27.3781863746  TIP3      1979            0.0000000000
     19406      2126  TIP3      OH2            20.1841634261       27.1166221672       27.8445036592  TIP3      1980            0.0000000000
     19407      2126  TIP3      H1             19.9529915374       26.9419991308       26.9216578763  TIP3      1980            0.0000000000
     19408      2126  TIP3      H2             19.8535914509       26.3288290179       28.3092242022  TIP3      1980            0.0000000000
     19409      2127  TIP3      OH2            21.3486452242       27.1986082198       23.8409681479  TIP3      1981            0.0000000000
     19410      2127  TIP3      H1             20.5054380949       27.6594192814       23.6816121164  TIP3      1981            0.0000000000
     19411      2127  TIP3      H2             21.0808159775       26.3584862993       24.2629243044  TIP3      1981            0.0000000000
     19412      2128  TIP3      OH2            11.1340022046       29.2033565660       21.4837514999  TIP3      1982            0.0000000000
     19413      2128  TIP3      H1             11.4474061427       28.3098950598       21.2741246548  TIP3      1982            0.0000000000
     19414      2128  TIP3      H2             11.9179321371       29.5111456251       21.9898472984  TIP3      1982            0.0000000000
     19415      2129  TIP3      OH2            15.9274715087       29.7765743421       24.5627165234  TIP3      1983            0.0000000000
     19416      2129  TIP3      H1             16.5180369325       29.0195263700       24.3979918095  TIP3      1983            0.0000000000
     19417      2129  TIP3      H2             16.3320590282       30.4889827232       24.0458672952  TIP3      1983            0.0000000000
     19418      2130  TIP3      OH2             9.9502246869       27.8957791361       36.5845307202  TIP3      1984            0.0000000000
     19419      2130  TIP3      H1              9.6999274495       26.9624551518       36.6913889651  TIP3      1984            0.0000000000
     19420      2130  TIP3      H2             10.6433198529       27.9794106610       37.2720111375  TIP3      1984            0.0000000000
     19421      2131  TIP3      OH2            12.0918744432       27.3254842928       38.1601681015  TIP3      1985            0.0000000000
     19422      2131  TIP3      H1             12.9340062665       27.2255255903       37.6904017388  TIP3      1985            0.0000000000
     19423      2131  TIP3      H2             11.9258551870       26.4092207179       38.4850880900  TIP3      1985            0.0000000000
     19424      2132  TIP3      OH2            20.2967458277       26.4502324524       38.0448266271  TIP3      1986            0.0000000000
     19425      2132  TIP3      H1             20.5110017348       25.9402647501       38.8400674020  TIP3      1986            0.0000000000
     19426      2132  TIP3      H2             21.2144693596       26.6334931914       37.7440194434  TIP3      1986            0.0000000000
     19427      2133  TIP3      OH2            29.5933169481       27.0845395521       30.4055851764  TIP3      1987            0.0000000000
     19428      2133  TIP3      H1             29.6597396626       27.2132716295       29.4431157656  TIP3      1987            0.0000000000
     19429      2133  TIP3      H2             29.0527755994       26.2730584481       30.4290839508  TIP3      1987            0.0000000000
     19430      2134  TIP3      OH2            27.6840724470       29.2522673765       30.0142591566  TIP3      1988            0.0000000000
     19431      2134  TIP3      H1             28.3766912949       28.5672724815       29.9252327197  TIP3      1988            0.0000000000
     19432      2134  TIP3      H2             28.1842943940       30.0394882274       29.7314820457  TIP3      1988            0.0000000000
     19433      2135  TIP3      OH2            26.9294761126       29.1661728471       24.8414815241  TIP3      1989            0.0000000000
     19434      2135  TIP3      H1             26.0725151331       28.8664112910       25.1828280556  TIP3      1989            0.0000000000
     19435      2135  TIP3      H2             26.6869984590       29.2815390774       23.9095069503  TIP3      1989            0.0000000000
     19436      2136  TIP3      OH2            26.7673829878       27.6967003974       33.2192271586  TIP3      1990            0.0000000000
     19437      2136  TIP3      H1             25.9619741824       27.4671726033       33.7239086157  TIP3      1990            0.0000000000
     19438      2136  TIP3      H2             26.5328732787       28.5264913054       32.7705354297  TIP3      1990            0.0000000000
     19439      2137  TIP3      OH2            28.9671503032       27.6403448170       27.6373993991  TIP3      1991            0.0000000000
     19440      2137  TIP3      H1             28.1233099368       27.8243763877       27.1948871261  TIP3      1991            0.0000000000
     19441      2137  TIP3      H2             29.5680970416       28.1944609219       27.1182695298  TIP3      1991            0.0000000000
     19442      2138  TIP3      OH2            27.4954793281       27.2969351116       22.3729502073  TIP3      1992            0.0000000000
     19443      2138  TIP3      H1             27.6766540359       28.1926430436       22.0458487606  TIP3      1992            0.0000000000
     19444      2138  TIP3      H2             28.1592491942       27.2451665477       23.0736247746  TIP3      1992            0.0000000000
     19445      2139  TIP3      OH2           -30.1586682495       28.5947271172       22.0749161258  TIP3      1993            0.0000000000
     19446      2139  TIP3      H1            -29.6203823462       27.9514374468       21.5832845367  TIP3      1993            0.0000000000
     19447      2139  TIP3      H2            -29.5661423667       29.3698975342       22.0956241495  TIP3      1993            0.0000000000
     19448      2140  TIP3      OH2            28.6746253705       27.9772820577       36.5624401989  TIP3      1994            0.0000000000
     19449      2140  TIP3      H1             28.5247026056       27.0208880789       36.6244070282  TIP3      1994            0.0000000000
     19450      2140  TIP3      H2             29.1563976344       28.1476225264       37.3881002217  TIP3      1994            0.0000000000
     19451      2141  TIP3      OH2           -19.8955247131      -21.7888559550       40.1615697528  TIP3      1995            0.0000000000
     19452      2141  TIP3      H1            -19.1245835712      -21.4994816097       40.6913552044  TIP3      1995            0.0000000000
     19453      2141  TIP3      H2            -19.4324358961      -22.4864663173       39.6577293443  TIP3      1995            0.0000000000
     19454      2142  TIP3      OH2           -17.5278012908      -21.1179386399       41.1994689733  TIP3      1996            0.0000000000
     19455      2142  TIP3      H1            -17.8574667131      -20.4932765798       41.8599939415  TIP3      1996            0.0000000000
     19456      2142  TIP3      H2            -16.9468116573      -20.5551741026       40.6274634105  TIP3      1996            0.0000000000
     19457      2143  TIP3      OH2           -13.7191539681      -29.4746744409       42.2085399576  TIP3      1997            0.0000000000
     19458      2143  TIP3      H1            -14.2361449158      -30.0255455832       41.6048943304  TIP3      1997            0.0000000000
     19459      2143  TIP3      H2            -13.4244477167      -28.7532045591       41.6039895962  TIP3      1997            0.0000000000
     19460      2144  TIP3      OH2           -12.4344158465      -15.2398442466       39.5629010144  TIP3      1998            0.0000000000
     19461      2144  TIP3      H1            -12.4014129224      -14.3306367326       39.9155924421  TIP3      1998            0.0000000000
     19462      2144  TIP3      H2            -11.7859112053      -15.6582863385       40.1577317915  TIP3      1998            0.0000000000
     19463      2145  TIP3      OH2           -16.6809177260      -12.7961848395       40.8108259969  TIP3      1999            0.0000000000
     19464      2145  TIP3      H1            -16.4161661784      -13.4120077144       40.0855269775  TIP3      1999            0.0000000000
     19465      2145  TIP3      H2            -16.2183173479      -13.2184159100       41.5670115851  TIP3      1999            0.0000000000
     19466      2146  TIP3      OH2           -15.8597223225      -19.5425999678       39.9320715017  TIP3      2000            0.0000000000
     19467      2146  TIP3      H1            -16.1364379652      -19.5240831431       38.9898636743  TIP3      2000            0.0000000000
     19468      2146  TIP3      H2            -14.9067350745      -19.7213355839       39.7983916101  TIP3      2000            0.0000000000
     19469      2147  TIP3      OH2           -20.3827276681      -26.5289527527       40.6385277729  TIP3      2001            0.0000000000
     19470      2147  TIP3      H1            -21.0365670661      -26.5204647898       41.3545083943  TIP3      2001            0.0000000000
     19471      2147  TIP3      H2            -20.8360353274      -27.1032367632       39.9939119921  TIP3      2001            0.0000000000
     19472      2148  TIP3      OH2           -23.8905098799      -26.1749900723       39.2707051658  TIP3      2002            0.0000000000
     19473      2148  TIP3      H1            -24.4638700085      -26.4677413782       40.0183382112  TIP3      2002            0.0000000000
     19474      2148  TIP3      H2            -24.5009383162      -25.5757109047       38.7801501909  TIP3      2002            0.0000000000
     19475      2149  TIP3      OH2           -29.4152897769      -26.0077468598       41.4323706159  TIP3      2003            0.0000000000
     19476      2149  TIP3      H1            -28.5417978296      -25.6107915028       41.2448836402  TIP3      2003            0.0000000000
     19477      2149  TIP3      H2            -29.4203556324      -26.0811723548       42.4046295705  TIP3      2003            0.0000000000
     19478      2150  TIP3      OH2           -24.7361191914      -23.1933285822       40.3788197646  TIP3      2004            0.0000000000
     19479      2150  TIP3      H1            -25.1537739268      -23.6561121716       39.6297773459  TIP3      2004            0.0000000000
     19480      2150  TIP3      H2            -23.8887091650      -22.9496009358       39.9542802679  TIP3      2004            0.0000000000
     19481      2151  TIP3      OH2           -17.7164602700      -25.4051409040       40.3399563117  TIP3      2005            0.0000000000
     19482      2151  TIP3      H1            -18.6110730331      -25.7088489423       40.6129123229  TIP3      2005            0.0000000000
     19483      2151  TIP3      H2            -17.3917961256      -24.9695945955       41.1649099421  TIP3      2005            0.0000000000
     19484      2152  TIP3      OH2           -17.0287919752      -23.5286922675       42.2364978754  TIP3      2006            0.0000000000
     19485      2152  TIP3      H1            -16.1158129890      -23.4396369632       42.5525336928  TIP3      2006            0.0000000000
     19486      2152  TIP3      H2            -17.1507891761      -22.7359659648       41.6664962910  TIP3      2006            0.0000000000
     19487      2153  TIP3      OH2           -19.4323376251      -17.3847165168       41.7924748018  TIP3      2007            0.0000000000
     19488      2153  TIP3      H1            -19.9409714466      -16.5585351652       41.7096117175  TIP3      2007            0.0000000000
     19489      2153  TIP3      H2            -20.1486772509      -18.0030479270       41.9905791041  TIP3      2007            0.0000000000
     19490      2154  TIP3      OH2           -12.1292400421      -23.7100393975       41.7396201409  TIP3      2008            0.0000000000
     19491      2154  TIP3      H1            -12.7533254307      -24.0168961747       41.0468131835  TIP3      2008            0.0000000000
     19492      2154  TIP3      H2            -11.9527583280      -22.8066818934       41.4028365639  TIP3      2008            0.0000000000
     19493      2155  TIP3      OH2           -28.1881094232      -21.6577486293       40.3886690309  TIP3      2009            0.0000000000
     19494      2155  TIP3      H1            -27.7189569228      -20.9901595378       40.9311210800  TIP3      2009            0.0000000000
     19495      2155  TIP3      H2            -29.0639225387      -21.2409649799       40.3971168061  TIP3      2009            0.0000000000
     19496      2156  TIP3      OH2           -15.7874553638      -16.7130666157       40.4588472229  TIP3      2010            0.0000000000
     19497      2156  TIP3      H1            -15.8603385130      -16.5187672744       41.4047792906  TIP3      2010            0.0000000000
     19498      2156  TIP3      H2            -16.6551642150      -17.1349018171       40.2969141465  TIP3      2010            0.0000000000
     19499      2157  TIP3      OH2           -12.1700852512      -12.8099917986       40.7369204544  TIP3      2011            0.0000000000
     19500      2157  TIP3      H1            -11.4094776561      -12.2135812699       40.7010707676  TIP3      2011            0.0000000000
     19501      2157  TIP3      H2            -12.7970147009      -12.2837876513       41.2698483632  TIP3      2011            0.0000000000
     19502      2158  TIP3      OH2           -22.2018612678      -15.6598904381       38.7550668591  TIP3      2012            0.0000000000
     19503      2158  TIP3      H1            -22.5003293205      -16.2439453583       38.0373122091  TIP3      2012            0.0000000000
     19504      2158  TIP3      H2            -22.6242443109      -16.1071026122       39.5129445976  TIP3      2012            0.0000000000
     19505      2159  TIP3      OH2           -23.5963225992      -16.5028041833       41.3675352630  TIP3      2013            0.0000000000
     19506      2159  TIP3      H1            -23.4103836490      -16.7197500005       42.3008218793  TIP3      2013            0.0000000000
     19507      2159  TIP3      H2            -23.6532541016      -15.5268774410       41.4473518630  TIP3      2013            0.0000000000
     19508      2160  TIP3      OH2           -27.6202984100      -19.4413530382       41.7462230346  TIP3      2014            0.0000000000
     19509      2160  TIP3      H1            -26.8884447504      -19.3751230253       42.3835313050  TIP3      2014            0.0000000000
     19510      2160  TIP3      H2            -27.6048292166      -18.5264549039       41.4122955184  TIP3      2014            0.0000000000
     19511      2161  TIP3      OH2           -21.1766349353      -14.9265844298       41.6273596589  TIP3      2015            0.0000000000
     19512      2161  TIP3      H1            -22.0145799674      -14.5133746376       41.8922302919  TIP3      2015            0.0000000000
     19513      2161  TIP3      H2            -20.8015201352      -14.2892231978       40.9915390975  TIP3      2015            0.0000000000
     19514      2162  TIP3      OH2           -23.9203236027      -14.0122909927       42.3692238266  TIP3      2016            0.0000000000
     19515      2162  TIP3      H1            -23.5641499391      -13.2858163567       41.8213426688  TIP3      2016            0.0000000000
     19516      2162  TIP3      H2            -24.2886642052      -13.5133690482       43.1120229588  TIP3      2016            0.0000000000
     19517      2163  TIP3      OH2           -25.2712366148      -26.9316411599       41.4083741712  TIP3      2017            0.0000000000
     19518      2163  TIP3      H1            -25.7871230824      -26.5231450999       42.1282207916  TIP3      2017            0.0000000000
     19519      2163  TIP3      H2            -24.3776560267      -26.8477676428       41.8191710252  TIP3      2017            0.0000000000
     19520      2164  TIP3      OH2           -26.7149455079      -17.0505504162       40.7010134287  TIP3      2018            0.0000000000
     19521      2164  TIP3      H1            -26.0495557081      -16.5085133761       41.1643572963  TIP3      2018            0.0000000000
     19522      2164  TIP3      H2            -26.1242073600      -17.4992661760       40.0576055901  TIP3      2018            0.0000000000
     19523      2165  TIP3      OH2           -28.0611570970      -24.1187850608       39.5686367219  TIP3      2019            0.0000000000
     19524      2165  TIP3      H1            -27.7408086273      -23.2945679231       39.9931244273  TIP3      2019            0.0000000000
     19525      2165  TIP3      H2            -28.9965591092      -24.1281953654       39.8289625295  TIP3      2019            0.0000000000
     19526      2166  TIP3      OH2           -20.2514659934      -13.6431589154       38.8198481075  TIP3      2020            0.0000000000
     19527      2166  TIP3      H1            -20.8886081355      -14.3943186009       38.8013901301  TIP3      2020            0.0000000000
     19528      2166  TIP3      H2            -19.4683302184      -14.0875235417       38.4415088498  TIP3      2020            0.0000000000
     19529      2167  TIP3      OH2           -15.8746900458      -14.5037937271       38.8419708724  TIP3      2021            0.0000000000
     19530      2167  TIP3      H1            -15.6829421357      -15.2492119210       39.4576422233  TIP3      2021            0.0000000000
     19531      2167  TIP3      H2            -15.0522956120      -14.4480555924       38.3180750375  TIP3      2021            0.0000000000
     19532      2168  TIP3      OH2           -24.8466187728      -18.6218504923       38.9041070761  TIP3      2022            0.0000000000
     19533      2168  TIP3      H1            -24.4032207663      -18.6589723831       39.7669802825  TIP3      2022            0.0000000000
     19534      2168  TIP3      H2            -24.0804044605      -18.7848991526       38.3106142206  TIP3      2022            0.0000000000
     19535      2169  TIP3      OH2           -18.9167005926      -17.0486943938       38.9892433040  TIP3      2023            0.0000000000
     19536      2169  TIP3      H1            -18.9560020520      -17.2585728892       39.9431546139  TIP3      2023            0.0000000000
     19537      2169  TIP3      H2            -19.2144374394      -17.9021295933       38.5968522773  TIP3      2023            0.0000000000
     19538      2170  TIP3      OH2           -23.5746745665      -20.4208967020       41.0951010327  TIP3      2024            0.0000000000
     19539      2170  TIP3      H1            -24.4081807211      -20.9254599916       41.1265806975  TIP3      2024            0.0000000000
     19540      2170  TIP3      H2            -23.0790803955      -20.9306636394       40.4071314851  TIP3      2024            0.0000000000
     19541      2171  TIP3      OH2           -22.4218535584      -21.9136126490       39.2269307532  TIP3      2025            0.0000000000
     19542      2171  TIP3      H1            -22.3742426293      -21.6346611930       38.2839850738  TIP3      2025            0.0000000000
     19543      2171  TIP3      H2            -21.4658619577      -21.9858743713       39.4632924213  TIP3      2025            0.0000000000
     19544      2172  TIP3      OH2           -13.3144085185      -20.0129308771       39.0387733425  TIP3      2026            0.0000000000
     19545      2172  TIP3      H1            -13.3392848358      -20.4003631894       38.1230043409  TIP3      2026            0.0000000000
     19546      2172  TIP3      H2            -13.3243811911      -19.0458564894       38.8061265193  TIP3      2026            0.0000000000
     19547      2173  TIP3      OH2           -22.6128606799      -12.0341200500       41.3088043378  TIP3      2027            0.0000000000
     19548      2173  TIP3      H1            -21.6531891695      -12.1125806799       41.3180984131  TIP3      2027            0.0000000000
     19549      2173  TIP3      H2            -22.7453476405      -11.4076551374       40.5681116995  TIP3      2027            0.0000000000
     19550      2174  TIP3      OH2           -29.4622393599      -16.7330977187       40.1185960162  TIP3      2028            0.0000000000
     19551      2174  TIP3      H1            -28.9316019897      -16.2515398879       40.7779155607  TIP3      2028            0.0000000000
     19552      2174  TIP3      H2            -28.7509740247      -17.2443353788       39.6986426283  TIP3      2028            0.0000000000
     19553      2175  TIP3      OH2           -11.5410023368      -21.1435997988       40.7844728442  TIP3      2029            0.0000000000
     19554      2175  TIP3      H1            -12.1277478685      -20.9388005615       40.0243687599  TIP3      2029            0.0000000000
     19555      2175  TIP3      H2            -11.6385619414      -20.3434940562       41.3247262470  TIP3      2029            0.0000000000
     19556      2176  TIP3      OH2           -13.7004481008      -23.6637455768       39.5130534460  TIP3      2030            0.0000000000
     19557      2176  TIP3      H1            -13.5486688257      -23.0741454655       38.7606737267  TIP3      2030            0.0000000000
     19558      2176  TIP3      H2            -14.0010343973      -24.4956101032       39.0804441767  TIP3      2030            0.0000000000
     19559      2177  TIP3      OH2           -14.0407348525      -26.1891276847       38.7095453738  TIP3      2031            0.0000000000
     19560      2177  TIP3      H1            -13.7420367701      -26.7122386927       39.4886842567  TIP3      2031            0.0000000000
     19561      2177  TIP3      H2            -15.0017648525      -26.4218576395       38.6484032917  TIP3      2031            0.0000000000
     19562      2178  TIP3      OH2           -12.5171210361      -27.5800189553       40.6120364078  TIP3      2032            0.0000000000
     19563      2178  TIP3      H1            -12.0009161633      -28.1447893046       39.9877312059  TIP3      2032            0.0000000000
     19564      2178  TIP3      H2            -11.8058784620      -26.9988014317       40.9767518725  TIP3      2032            0.0000000000
     19565      2179  TIP3      OH2           -29.3793367602      -29.4459768404       41.4127037629  TIP3      2033            0.0000000000
     19566      2179  TIP3      H1            -28.5110700270      -29.1255662712       41.1219093560  TIP3      2033            0.0000000000
     19567      2179  TIP3      H2            -29.7088966556      -28.6457647058       41.8620099098  TIP3      2033            0.0000000000
     19568      2180  TIP3      OH2           -27.3760718419      -27.6204084741       39.9215658110  TIP3      2034            0.0000000000
     19569      2180  TIP3      H1            -26.6997437459      -28.2469747757       39.6040233055  TIP3      2034            0.0000000000
     19570      2180  TIP3      H2            -26.8443991750      -27.0767424801       40.5324748349  TIP3      2034            0.0000000000
     19571      2181  TIP3      OH2           -19.3893227170      -12.6383437224       41.1990662878  TIP3      2035            0.0000000000
     19572      2181  TIP3      H1            -18.4140894428      -12.5284949840       41.1424249467  TIP3      2035            0.0000000000
     19573      2181  TIP3      H2            -19.6113111327      -12.7732893951       40.2463199380  TIP3      2035            0.0000000000
     19574      2182  TIP3      OH2           -27.2186700985      -12.5093618705       39.6068719396  TIP3      2036            0.0000000000
     19575      2182  TIP3      H1            -27.3545293950      -12.5827946435       40.5712040883  TIP3      2036            0.0000000000
     19576      2182  TIP3      H2            -26.4287244260      -13.0723827359       39.4575584296  TIP3      2036            0.0000000000
     19577      2183  TIP3      OH2            -1.1853777564      -21.9440574729       40.3834802228  TIP3      2037            0.0000000000
     19578      2183  TIP3      H1             -0.3439042226      -21.6627907505       40.7880950012  TIP3      2037            0.0000000000
     19579      2183  TIP3      H2             -0.8313764154      -22.7072718499       39.8958975997  TIP3      2037            0.0000000000
     19580      2184  TIP3      OH2             1.3929372003      -21.0793310454       41.2468052081  TIP3      2038            0.0000000000
     19581      2184  TIP3      H1              0.9032402680      -20.2455486190       41.3642687046  TIP3      2038            0.0000000000
     19582      2184  TIP3      H2              2.1463226127      -20.7825723590       40.6694134387  TIP3      2038            0.0000000000
     19583      2185  TIP3      OH2             5.5005054059      -29.5200739753       42.3289488820  TIP3      2039            0.0000000000
     19584      2185  TIP3      H1              4.9285931146      -30.1513110930       41.8561678906  TIP3      2039            0.0000000000
     19585      2185  TIP3      H2              5.5909299392      -28.7982466662       41.6637392691  TIP3      2039            0.0000000000
     19586      2186  TIP3      OH2             6.3548966615      -15.3480901267       39.9709304637  TIP3      2040            0.0000000000
     19587      2186  TIP3      H1              6.8420282476      -14.5242025669       40.0803456768  TIP3      2040            0.0000000000
     19588      2186  TIP3      H2              7.0180113688      -16.0204211240       40.2601216122  TIP3      2040            0.0000000000
     19589      2187  TIP3      OH2             2.2842941659      -12.8174282007       40.7626350380  TIP3      2041            0.0000000000
     19590      2187  TIP3      H1              2.4734771898      -13.5092299929       40.0931380887  TIP3      2041            0.0000000000
     19591      2187  TIP3      H2              2.5463839885      -13.3026604640       41.5686673236  TIP3      2041            0.0000000000
     19592      2188  TIP3      OH2             3.4730796503      -20.4251045808       39.8888608281  TIP3      2042            0.0000000000
     19593      2188  TIP3      H1              3.2577057494      -20.6679047917       38.9657873304  TIP3      2042            0.0000000000
     19594      2188  TIP3      H2              4.3272546010      -19.9742965747       39.7321076664  TIP3      2042            0.0000000000
     19595      2189  TIP3      OH2            -1.5663948037      -26.1658120810       40.0788256122  TIP3      2043            0.0000000000
     19596      2189  TIP3      H1             -2.1488732790      -25.8884964996       40.7948099386  TIP3      2043            0.0000000000
     19597      2189  TIP3      H2             -2.0218234516      -26.9542560822       39.7417096146  TIP3      2043            0.0000000000
     19598      2190  TIP3      OH2            -5.4953691693      -25.9288354155       39.1191573054  TIP3      2044            0.0000000000
     19599      2190  TIP3      H1             -6.1009846259      -25.7535902491       39.8648435394  TIP3      2044            0.0000000000
     19600      2190  TIP3      H2             -5.8177168582      -25.2371234951       38.4994382170  TIP3      2044            0.0000000000
     19601      2191  TIP3      OH2           -10.6459709505      -26.0472570456       41.6866287102  TIP3      2045            0.0000000000
     19602      2191  TIP3      H1             -9.9470669050      -25.8852222066       41.0318947618  TIP3      2045            0.0000000000
     19603      2191  TIP3      H2            -11.0540803738      -25.1543423910       41.7321771350  TIP3      2045            0.0000000000
     19604      2192  TIP3      OH2            -5.8941881420      -23.1432297173       40.6039597738  TIP3      2046            0.0000000000
     19605      2192  TIP3      H1             -6.6006322257      -23.4908425735       40.0362149194  TIP3      2046            0.0000000000
     19606      2192  TIP3      H2             -5.3020794448      -22.7417033656       39.9283661599  TIP3      2046            0.0000000000
     19607      2193  TIP3      OH2             1.2320090054      -25.8643929606       41.0616847368  TIP3      2047            0.0000000000
     19608      2193  TIP3      H1              0.2792870858      -25.7520645403       41.2075397403  TIP3      2047            0.0000000000
     19609      2193  TIP3      H2              1.6281315992      -25.3248242835       41.7847087530  TIP3      2047            0.0000000000
     19610      2194  TIP3      OH2             2.0422305813      -23.5718789204       42.1342671748  TIP3      2048            0.0000000000
     19611      2194  TIP3      H1              2.9325640871      -23.4481299488       42.5188098453  TIP3      2048            0.0000000000
     19612      2194  TIP3      H2              1.8803329086      -22.7429091820       41.6374331338  TIP3      2048            0.0000000000
     19613      2195  TIP3      OH2            -0.0192720500      -17.9458312551       41.7526944525  TIP3      2049            0.0000000000
     19614      2195  TIP3      H1             -0.1463519602      -17.0441981774       41.4161853056  TIP3      2049            0.0000000000
     19615      2195  TIP3      H2             -0.9757586610      -18.1839852329       41.6848454994  TIP3      2049            0.0000000000
     19616      2196  TIP3      OH2             6.7941329711      -23.7341708674       41.8780290075  TIP3      2050            0.0000000000
     19617      2196  TIP3      H1              6.2650001422      -24.2876023765       41.2767141008  TIP3      2050            0.0000000000
     19618      2196  TIP3      H2              6.8765587834      -22.9043481161       41.3693538317  TIP3      2050            0.0000000000
     19619      2197  TIP3      OH2            -8.4255681822      -20.8382248615       39.9317527710  TIP3      2051            0.0000000000
     19620      2197  TIP3      H1             -8.1034800583      -20.1007769212       40.4920566302  TIP3      2051            0.0000000000
     19621      2197  TIP3      H2             -9.2783043173      -21.0070473031       40.3599443343  TIP3      2051            0.0000000000
     19622      2198  TIP3      OH2             3.1225978600      -16.9894053307       40.5849046613  TIP3      2052            0.0000000000
     19623      2198  TIP3      H1              3.0456567425      -16.5317174780       41.4336012887  TIP3      2052            0.0000000000
     19624      2198  TIP3      H2              2.1888490317      -17.2214971106       40.4270802100  TIP3      2052            0.0000000000
     19625      2199  TIP3      OH2             6.8252909377      -12.8027455393       40.8200674503  TIP3      2053            0.0000000000
     19626      2199  TIP3      H1              7.2253724025      -13.3528355636       41.5116321850  TIP3      2053            0.0000000000
     19627      2199  TIP3      H2              5.9665291779      -12.6035482073       41.2381908543  TIP3      2053            0.0000000000
     19628      2200  TIP3      OH2            -3.5063187082      -15.3260481688       38.6885386121  TIP3      2054            0.0000000000
     19629      2200  TIP3      H1             -3.7896445866      -16.1543302269       38.2543494317  TIP3      2054            0.0000000000
     19630      2200  TIP3      H2             -3.2303870424      -15.7344089045       39.5439501437  TIP3      2054            0.0000000000
     19631      2201  TIP3      OH2            -5.1419101721      -16.4658924769       41.4083953884  TIP3      2055            0.0000000000
     19632      2201  TIP3      H1             -4.3442716485      -16.9863515505       41.1244181023  TIP3      2055            0.0000000000
     19633      2201  TIP3      H2             -4.7161484765      -15.7303463454       41.8764764929  TIP3      2055            0.0000000000
     19634      2202  TIP3      OH2            -8.4236808685      -19.0031997160       41.9645782803  TIP3      2056            0.0000000000
     19635      2202  TIP3      H1             -8.7658034858      -19.6931747386       42.5659571871  TIP3      2056            0.0000000000
     19636      2202  TIP3      H2             -7.4946984068      -18.9429049826       42.2782671037  TIP3      2056            0.0000000000
     19637      2203  TIP3      OH2            -2.3188577402      -14.6181805604       41.6481447139  TIP3      2057            0.0000000000
     19638      2203  TIP3      H1             -3.1669216128      -14.4765168299       42.1224184811  TIP3      2057            0.0000000000
     19639      2203  TIP3      H2             -2.2082865560      -13.7482805155       41.2317738630  TIP3      2057            0.0000000000
     19640      2204  TIP3      OH2            -4.7610180393      -14.0447158741       42.4888819080  TIP3      2058            0.0000000000
     19641      2204  TIP3      H1             -5.0242999159      -13.5508587278       41.6959032102  TIP3      2058            0.0000000000
     19642      2204  TIP3      H2             -5.1242575359      -13.4825959568       43.1856944431  TIP3      2058            0.0000000000
     19643      2205  TIP3      OH2            -6.5212495414      -26.9506803947       41.3108314583  TIP3      2059            0.0000000000
     19644      2205  TIP3      H1             -5.8906930255      -26.6862378839       42.0129354569  TIP3      2059            0.0000000000
     19645      2205  TIP3      H2             -5.8684160805      -27.2008609652       40.6207777386  TIP3      2059            0.0000000000
     19646      2206  TIP3      OH2            -7.8203975357      -16.4458496903       40.4833991578  TIP3      2060            0.0000000000
     19647      2206  TIP3      H1             -7.0370098025      -16.2631019461       41.0560895688  TIP3      2060            0.0000000000
     19648      2206  TIP3      H2             -7.3844549161      -17.1385952154       39.9613859934  TIP3      2060            0.0000000000
     19649      2207  TIP3      OH2            -9.5073799276      -23.7389677130       40.1206491890  TIP3      2061            0.0000000000
     19650      2207  TIP3      H1             -8.8990805101      -22.9801474789       40.1565010511  TIP3      2061            0.0000000000
     19651      2207  TIP3      H2            -10.0494714014      -23.5100534013       39.3465162355  TIP3      2061            0.0000000000
     19652      2208  TIP3      OH2            -1.2704923639      -13.6619319601       38.8068836625  TIP3      2062            0.0000000000
     19653      2208  TIP3      H1             -2.0173755147      -14.3077540349       38.7601311650  TIP3      2062            0.0000000000
     19654      2208  TIP3      H2             -0.5216454397      -14.1961477114       38.4591507764  TIP3      2062            0.0000000000
     19655      2209  TIP3      OH2             3.1994071214      -14.5177139731       38.8623805613  TIP3      2063            0.0000000000
     19656      2209  TIP3      H1              3.6052970646      -15.2191029324       39.4036386319  TIP3      2063            0.0000000000
     19657      2209  TIP3      H2              3.9505673135      -14.2769954760       38.2790770187  TIP3      2063            0.0000000000
     19658      2210  TIP3      OH2            -5.8896780896      -18.5518052992       38.8464518770  TIP3      2064            0.0000000000
     19659      2210  TIP3      H1             -5.4910059444      -18.6353782397       39.7371576745  TIP3      2064            0.0000000000
     19660      2210  TIP3      H2             -5.0865136398      -18.6751793055       38.2888922226  TIP3      2064            0.0000000000
     19661      2211  TIP3      OH2            -0.4491490028      -16.8755159812       38.5809358080  TIP3      2065            0.0000000000
     19662      2211  TIP3      H1             -1.2636772476      -17.0782340523       39.0973721922  TIP3      2065            0.0000000000
     19663      2211  TIP3      H2             -0.2543037794      -17.8025132026       38.2967620048  TIP3      2065            0.0000000000
     19664      2212  TIP3      OH2            -4.8809165216      -20.3115484179       41.0710728923  TIP3      2066            0.0000000000
     19665      2212  TIP3      H1             -5.4245012334      -21.0488780843       41.3826720801  TIP3      2066            0.0000000000
     19666      2212  TIP3      H2             -4.3882226568      -20.7265730764       40.3331879450  TIP3      2066            0.0000000000
     19667      2213  TIP3      OH2            -3.7862713470      -21.9227050527       39.3123956497  TIP3      2067            0.0000000000
     19668      2213  TIP3      H1             -3.6015639743      -21.5190138313       38.4418936301  TIP3      2067            0.0000000000
     19669      2213  TIP3      H2             -2.9006482024      -21.9948124011       39.7167445773  TIP3      2067            0.0000000000
     19670      2214  TIP3      OH2             5.9280886972      -19.9435360153       39.0090280908  TIP3      2068            0.0000000000
     19671      2214  TIP3      H1              5.7808213635      -20.1483591134       38.0610637118  TIP3      2068            0.0000000000
     19672      2214  TIP3      H2              6.0270891590      -18.9588487300       38.9558155083  TIP3      2068            0.0000000000
     19673      2215  TIP3      OH2            -3.5373103262      -11.6294339656       41.4772069882  TIP3      2069            0.0000000000
     19674      2215  TIP3      H1             -2.5740701486      -11.5096120088       41.4941359324  TIP3      2069            0.0000000000
     19675      2215  TIP3      H2             -3.8073950219      -11.0838216599       40.7197130545  TIP3      2069            0.0000000000
     19676      2216  TIP3      OH2           -10.5408915917      -16.8523411996       40.6363507950  TIP3      2070            0.0000000000
     19677      2216  TIP3      H1             -9.5574881399      -16.7700476672       40.6763516193  TIP3      2070            0.0000000000
     19678      2216  TIP3      H2            -10.5984458543      -17.3878744254       39.8282189174  TIP3      2070            0.0000000000
     19679      2217  TIP3      OH2             7.4047658017      -21.1746806858       40.9734016035  TIP3      2071            0.0000000000
     19680      2217  TIP3      H1              6.8544949082      -20.8750986282       40.2098548880  TIP3      2071            0.0000000000
     19681      2217  TIP3      H2              7.1003117906      -20.5310186851       41.6589406402  TIP3      2071            0.0000000000
     19682      2218  TIP3      OH2             5.1406772749      -23.6466791183       39.6868336945  TIP3      2072            0.0000000000
     19683      2218  TIP3      H1              5.4776425106      -23.2311032178       38.8801735829  TIP3      2072            0.0000000000
     19684      2218  TIP3      H2              4.8601950444      -24.5423555544       39.3948262982  TIP3      2072            0.0000000000
     19685      2219  TIP3      OH2             4.8399068119      -26.1821697971       38.8925348921  TIP3      2073            0.0000000000
     19686      2219  TIP3      H1              5.2220207960      -26.6613656180       39.6680092629  TIP3      2073            0.0000000000
     19687      2219  TIP3      H2              3.8977673429      -26.4837969392       38.8891108096  TIP3      2073            0.0000000000
     19688      2220  TIP3      OH2             6.5201217894      -27.6220847845       40.5783460559  TIP3      2074            0.0000000000
     19689      2220  TIP3      H1              6.9432390730      -28.2185393459       39.9096928835  TIP3      2074            0.0000000000
     19690      2220  TIP3      H2              7.2931926866      -27.0924320018       40.8963755132  TIP3      2074            0.0000000000
     19691      2221  TIP3      OH2           -10.1154688575      -29.4772386585       41.8373620180  TIP3      2075            0.0000000000
     19692      2221  TIP3      H1             -9.4399557272      -29.5175650652       41.1483966961  TIP3      2075            0.0000000000
     19693      2221  TIP3      H2            -10.1731038572      -28.5237971062       41.9744659843  TIP3      2075            0.0000000000
     19694      2222  TIP3      OH2            -8.5793783219      -27.5374895708       39.7067372159  TIP3      2076            0.0000000000
     19695      2222  TIP3      H1             -8.1160356985      -28.2037136493       39.1487616098  TIP3      2076            0.0000000000
     19696      2222  TIP3      H2             -7.9549464067      -27.4322149427       40.4518201770  TIP3      2076            0.0000000000
     19697      2223  TIP3      OH2            -0.7020946607      -12.4017359009       41.1661321505  TIP3      2077            0.0000000000
     19698      2223  TIP3      H1             -0.1708658403      -11.7530140685       40.6838156787  TIP3      2077            0.0000000000
     19699      2223  TIP3      H2             -0.8594169328      -13.0225646577       40.4115043929  TIP3      2077            0.0000000000
     19700      2224  TIP3      OH2            -9.0392794247      -12.6404519702       39.3354773400  TIP3      2078            0.0000000000
     19701      2224  TIP3      H1             -9.0911484952      -12.0279780747       40.0982111766  TIP3      2078            0.0000000000
     19702      2224  TIP3      H2             -8.1985516895      -13.0962669167       39.5032137058  TIP3      2078            0.0000000000
     19703      2225  TIP3      OH2            17.7763186298      -21.5631518194       40.1979759225  TIP3      2079            0.0000000000
     19704      2225  TIP3      H1             18.4983265036      -21.4356799720       40.8354275428  TIP3      2079            0.0000000000
     19705      2225  TIP3      H2             18.1312687318      -22.3680003003       39.7627125502  TIP3      2079            0.0000000000
     19706      2226  TIP3      OH2            20.4000756302      -21.3132542943       41.2198879100  TIP3      2080            0.0000000000
     19707      2226  TIP3      H1             20.8091440239      -20.9445879261       42.0314977754  TIP3      2080            0.0000000000
     19708      2226  TIP3      H2             20.8247576469      -20.7351125753       40.5317996522  TIP3      2080            0.0000000000
     19709      2227  TIP3      OH2            24.2248223496      -29.3859453706       42.3761817910  TIP3      2081            0.0000000000
     19710      2227  TIP3      H1             23.7116248528      -30.1199611767       42.0050175292  TIP3      2081            0.0000000000
     19711      2227  TIP3      H2             24.3713502895      -28.8469303179       41.5554555214  TIP3      2081            0.0000000000
     19712      2228  TIP3      OH2            24.9854704225      -15.1520388571       39.9497734728  TIP3      2082            0.0000000000
     19713      2228  TIP3      H1             25.2499052751      -14.2462769427       40.2112231083  TIP3      2082            0.0000000000
     19714      2228  TIP3      H2             25.8321583726      -15.6081058462       40.1181230248  TIP3      2082            0.0000000000
     19715      2229  TIP3      OH2            20.8924971091      -12.9353142712       40.8752540267  TIP3      2083            0.0000000000
     19716      2229  TIP3      H1             21.1804432024      -13.5035540642       40.1236730195  TIP3      2083            0.0000000000
     19717      2229  TIP3      H2             21.3817743532      -13.3780831763       41.6022578990  TIP3      2083            0.0000000000
     19718      2230  TIP3      OH2            21.8333508842      -19.6440003462       39.8598598534  TIP3      2084            0.0000000000
     19719      2230  TIP3      H1             21.5174614835      -19.6051362433       38.9306421198  TIP3      2084            0.0000000000
     19720      2230  TIP3      H2             22.7906080779      -19.7218714580       39.6930325445  TIP3      2084            0.0000000000
     19721      2231  TIP3      OH2            17.6428913235      -26.8185002003       40.5289741438  TIP3      2085            0.0000000000
     19722      2231  TIP3      H1             17.1794232820      -26.1533218289       41.0508772263  TIP3      2085            0.0000000000
     19723      2231  TIP3      H2             16.9781348249      -27.0538788414       39.8507360135  TIP3      2085            0.0000000000
     19724      2232  TIP3      OH2            13.9190182245      -25.8529106902       39.3055978071  TIP3      2086            0.0000000000
     19725      2232  TIP3      H1             13.3983700019      -26.2344875991       40.0470898084  TIP3      2086            0.0000000000
     19726      2232  TIP3      H2             13.3108011351      -25.1507865109       38.9880966695  TIP3      2086            0.0000000000
     19727      2233  TIP3      OH2             8.4447509645      -26.1677480093       41.7325381181  TIP3      2087            0.0000000000
     19728      2233  TIP3      H1              9.2741342976      -25.9753734002       41.2521809871  TIP3      2087            0.0000000000
     19729      2233  TIP3      H2              8.1691474526      -25.2591331745       41.9494587441  TIP3      2087            0.0000000000
     19730      2234  TIP3      OH2            13.0601895493      -22.9500793415       40.6244328339  TIP3      2088            0.0000000000
     19731      2234  TIP3      H1             12.2515930060      -23.1840037563       40.1379279414  TIP3      2088            0.0000000000
     19732      2234  TIP3      H2             13.6650617992      -22.7331795541       39.8863235274  TIP3      2088            0.0000000000
     19733      2235  TIP3      OH2            19.9119216269      -25.3152198178       40.3285207472  TIP3      2089            0.0000000000
     19734      2235  TIP3      H1             19.1939238655      -25.8828045968       40.6939169184  TIP3      2089            0.0000000000
     19735      2235  TIP3      H2             20.3609750823      -24.9991798102       41.1462042466  TIP3      2089            0.0000000000
     19736      2236  TIP3      OH2            20.9358733720      -23.6749917456       42.1930051504  TIP3      2090            0.0000000000
     19737      2236  TIP3      H1             21.9013601782      -23.7020685198       42.1323722602  TIP3      2090            0.0000000000
     19738      2236  TIP3      H2             20.7305574413      -22.9132023355       41.6069987521  TIP3      2090            0.0000000000
     19739      2237  TIP3      OH2            18.2267941969      -17.3543586157       41.5331081660  TIP3      2091            0.0000000000
     19740      2237  TIP3      H1             17.7676291736      -16.5228976325       41.7272416163  TIP3      2091            0.0000000000
     19741      2237  TIP3      H2             17.5739207617      -18.0100815747       41.8120501862  TIP3      2091            0.0000000000
     19742      2238  TIP3      OH2            25.8450797119      -23.6659649708       41.7901258120  TIP3      2092            0.0000000000
     19743      2238  TIP3      H1             25.3754189604      -24.2508745156       41.1571506079  TIP3      2092            0.0000000000
     19744      2238  TIP3      H2             25.6626748895      -22.7869115730       41.4024697170  TIP3      2092            0.0000000000
     19745      2239  TIP3      OH2            10.0772613566      -20.7775822848       40.1162184870  TIP3      2093            0.0000000000
     19746      2239  TIP3      H1             10.2727568515      -20.0503750754       40.7388209049  TIP3      2093            0.0000000000
     19747      2239  TIP3      H2              9.1134663502      -20.8590967700       40.2677592355  TIP3      2093            0.0000000000
     19748      2240  TIP3      OH2            21.8168987867      -16.7389993067       40.3422826785  TIP3      2094            0.0000000000
     19749      2240  TIP3      H1             21.7804951784      -16.5761693073       41.2922047506  TIP3      2094            0.0000000000
     19750      2240  TIP3      H2             20.9275398229      -17.0931606304       40.1842788310  TIP3      2094            0.0000000000
     19751      2241  TIP3      OH2            25.7181403735      -12.7455463223       40.8833073897  TIP3      2095            0.0000000000
     19752      2241  TIP3      H1             26.4488437994      -12.1408371046       41.0978540437  TIP3      2095            0.0000000000
     19753      2241  TIP3      H2             24.9669480457      -12.2794885487       41.2855107122  TIP3      2095            0.0000000000
     19754      2242  TIP3      OH2            15.7963311432      -16.0108994830       38.9933223983  TIP3      2096            0.0000000000
     19755      2242  TIP3      H1             15.6231554226      -16.7731285196       38.4257389131  TIP3      2096            0.0000000000
     19756      2242  TIP3      H2             15.2026421672      -16.2319017791       39.7409249265  TIP3      2096            0.0000000000
     19757      2243  TIP3      OH2            14.2727363363      -16.5903282209       41.2592329538  TIP3      2097            0.0000000000
     19758      2243  TIP3      H1             15.1468813339      -16.7786485389       41.6167058079  TIP3      2097            0.0000000000
     19759      2243  TIP3      H2             13.9481663647      -15.9010675704       41.8799109053  TIP3      2097            0.0000000000
     19760      2244  TIP3      OH2            10.3918351452      -19.2144368991       42.2362763475  TIP3      2098            0.0000000000
     19761      2244  TIP3      H1             10.1929730209      -19.9293627398       42.8828048058  TIP3      2098            0.0000000000
     19762      2244  TIP3      H2             11.3576183943      -19.1258868232       42.3741780977  TIP3      2098            0.0000000000
     19763      2245  TIP3      OH2            16.5582702917      -14.7802927516       41.7134206459  TIP3      2099            0.0000000000
     19764      2245  TIP3      H1             15.6549057505      -14.4330367559       41.6043804293  TIP3      2099            0.0000000000
     19765      2245  TIP3      H2             17.0741497345      -14.0828928921       41.2694562757  TIP3      2099            0.0000000000
     19766      2246  TIP3      OH2            13.6298462194      -14.2226298943       42.5773167026  TIP3      2100            0.0000000000
     19767      2246  TIP3      H1             13.6084031717      -13.5096627687       41.9088135422  TIP3      2100            0.0000000000
     19768      2246  TIP3      H2             14.0041921454      -13.7144501998       43.3061933596  TIP3      2100            0.0000000000
     19769      2247  TIP3      OH2            12.6935386338      -26.9808439633       41.3472067551  TIP3      2101            0.0000000000
     19770      2247  TIP3      H1             12.6684307877      -26.3054755574       42.0457717551  TIP3      2101            0.0000000000
     19771      2247  TIP3      H2             13.6076398244      -27.2620090505       41.5387593231  TIP3      2101            0.0000000000
     19772      2248  TIP3      OH2            11.0115829087      -16.4216491885       40.3068482103  TIP3      2102            0.0000000000
     19773      2248  TIP3      H1             11.3187460504      -15.7700253776       40.9516417847  TIP3      2102            0.0000000000
     19774      2248  TIP3      H2             11.8380920509      -16.9133166327       40.1540133867  TIP3      2102            0.0000000000
     19775      2249  TIP3      OH2             9.5913408170      -23.5862480253       40.2112089710  TIP3      2103            0.0000000000
     19776      2249  TIP3      H1              9.9333695571      -22.6688732986       40.2589912862  TIP3      2103            0.0000000000
     19777      2249  TIP3      H2              8.7130769024      -23.4745800453       39.8297471035  TIP3      2103            0.0000000000
     19778      2250  TIP3      OH2            17.4185028992      -13.6620330283       38.9075848094  TIP3      2104            0.0000000000
     19779      2250  TIP3      H1             16.9189786176      -14.5115090384       38.9697985796  TIP3      2104            0.0000000000
     19780      2250  TIP3      H2             18.1966307343      -13.9874198981       38.3934400589  TIP3      2104            0.0000000000
     19781      2251  TIP3      OH2            21.8302936049      -14.5206334313       38.8545028214  TIP3      2105            0.0000000000
     19782      2251  TIP3      H1             21.9566207181      -15.3104257533       39.4347586501  TIP3      2105            0.0000000000
     19783      2251  TIP3      H2             22.5898517556      -14.6104880645       38.2453111320  TIP3      2105            0.0000000000
     19784      2252  TIP3      OH2            13.0157249830      -18.6337759991       38.7680012208  TIP3      2106            0.0000000000
     19785      2252  TIP3      H1             13.0807985369      -19.2214553206       39.5322788726  TIP3      2106            0.0000000000
     19786      2252  TIP3      H2             13.7867264478      -18.8686448360       38.2075757425  TIP3      2106            0.0000000000
     19787      2253  TIP3      OH2            18.9805400328      -17.1733370530       38.7247758625  TIP3      2107            0.0000000000
     19788      2253  TIP3      H1             18.7274142492      -17.2481825388       39.6635069895  TIP3      2107            0.0000000000
     19789      2253  TIP3      H2             18.6880692555      -18.0622557518       38.3932162336  TIP3      2107            0.0000000000
     19790      2254  TIP3      OH2            14.5803405802      -20.4170390921       41.2079457720  TIP3      2108            0.0000000000
     19791      2254  TIP3      H1             13.9792417805      -21.0958497241       41.5569869698  TIP3      2108            0.0000000000
     19792      2254  TIP3      H2             14.8650690819      -20.8724762027       40.3870128532  TIP3      2108            0.0000000000
     19793      2255  TIP3      OH2            15.2055095552      -21.8300956477       39.0232158102  TIP3      2109            0.0000000000
     19794      2255  TIP3      H1             15.0748341360      -21.3677289628       38.1713196652  TIP3      2109            0.0000000000
     19795      2255  TIP3      H2             16.1632441323      -21.6783929370       39.1819185950  TIP3      2109            0.0000000000
     19796      2256  TIP3      OH2            24.3541005539      -20.0977169425       38.7926934535  TIP3      2110            0.0000000000
     19797      2256  TIP3      H1             24.4250139021      -20.4068483625       37.8557146510  TIP3      2110            0.0000000000
     19798      2256  TIP3      H2             24.4287291601      -19.1157508902       38.6700009231  TIP3      2110            0.0000000000
     19799      2257  TIP3      OH2            15.1064813054      -12.1641388939       41.4963871328  TIP3      2111            0.0000000000
     19800      2257  TIP3      H1             16.0474374915      -11.9720530417       41.3258476864  TIP3      2111            0.0000000000
     19801      2257  TIP3      H2             14.6612775026      -11.6389748549       40.8083157999  TIP3      2111            0.0000000000
     19802      2258  TIP3      OH2             8.4177422033      -17.0637140142       40.3771686232  TIP3      2112            0.0000000000
     19803      2258  TIP3      H1              9.3664982908      -16.7852131425       40.3522921447  TIP3      2112            0.0000000000
     19804      2258  TIP3      H2              8.4798329719      -17.8793062957       39.8448401560  TIP3      2112            0.0000000000
     19805      2259  TIP3      OH2            26.0999326660      -21.0920787303       40.8370371473  TIP3      2113            0.0000000000
     19806      2259  TIP3      H1             25.4864907791      -20.9467027276       40.0781387904  TIP3      2113            0.0000000000
     19807      2259  TIP3      H2             25.7726940195      -20.4069552553       41.4602910735  TIP3      2113            0.0000000000
     19808      2260  TIP3      OH2            24.1795102362      -23.7756062110       39.5851161395  TIP3      2114            0.0000000000
     19809      2260  TIP3      H1             24.0075631017      -23.1747444217       38.8461918644  TIP3      2114            0.0000000000
     19810      2260  TIP3      H2             23.7678362094      -24.5996273896       39.2508825451  TIP3      2114            0.0000000000
     19811      2261  TIP3      OH2            23.7341241098      -26.1760674884       38.6928773019  TIP3      2115            0.0000000000
     19812      2261  TIP3      H1             24.0059345049      -26.7858698658       39.4163877640  TIP3      2115            0.0000000000
     19813      2261  TIP3      H2             22.7737721694      -26.3663431014       38.6001186389  TIP3      2115            0.0000000000
     19814      2262  TIP3      OH2            25.1637507796      -27.7828354192       40.4183866159  TIP3      2116            0.0000000000
     19815      2262  TIP3      H1             25.6200956099      -28.3813772430       39.7695426103  TIP3      2116            0.0000000000
     19816      2262  TIP3      H2             25.9340599509      -27.2532092145       40.7266393987  TIP3      2116            0.0000000000
     19817      2263  TIP3      OH2             8.9464377814      -29.4808736480       41.7691176144  TIP3      2117            0.0000000000
     19818      2263  TIP3      H1              9.3546969832      -29.3782017129       40.8938277131  TIP3      2117            0.0000000000
     19819      2263  TIP3      H2              8.5179641284      -28.6230473068       41.8713821004  TIP3      2117            0.0000000000
     19820      2264  TIP3      OH2            10.5349836892      -27.3340811823       39.9018231818  TIP3      2118            0.0000000000
     19821      2264  TIP3      H1             10.9742710138      -27.9972287926       39.3243985744  TIP3      2118            0.0000000000
     19822      2264  TIP3      H2             11.2553546226      -27.1848232861       40.5468595097  TIP3      2118            0.0000000000
     19823      2265  TIP3      OH2            18.1616061521      -12.4326286328       41.1546304912  TIP3      2119            0.0000000000
     19824      2265  TIP3      H1             19.1448664496      -12.4541749657       41.1485986079  TIP3      2119            0.0000000000
     19825      2265  TIP3      H2             17.9887449179      -12.6465386242       40.2088889720  TIP3      2119            0.0000000000
     19826      2266  TIP3      OH2            10.1791377718      -12.4138809816       39.4809943995  TIP3      2120            0.0000000000
     19827      2266  TIP3      H1             10.1253435728      -12.0771832785       40.3930750228  TIP3      2120            0.0000000000
     19828      2266  TIP3      H2             10.8955545980      -13.0669293318       39.5385684010  TIP3      2120            0.0000000000
     19829      2267  TIP3      OH2            27.1695427360      -26.3974855380       41.5158164257  TIP3      2121            0.0000000000
     19830      2267  TIP3      H1             27.9669126661      -26.3323426966       40.9556798608  TIP3      2121            0.0000000000
     19831      2267  TIP3      H2             27.0904042727      -25.4561688262       41.7413223773  TIP3      2121            0.0000000000
     19832      2268  TIP3      OH2            29.0067079505      -21.2031030646       40.4649138476  TIP3      2122            0.0000000000
     19833      2268  TIP3      H1             29.2456985103      -20.3997841589       40.9782410005  TIP3      2122            0.0000000000
     19834      2268  TIP3      H2             28.0413154457      -21.1904937474       40.6684886418  TIP3      2122            0.0000000000
     19835      2269  TIP3      OH2            29.4961412528      -18.7475686049       41.4626774777  TIP3      2123            0.0000000000
     19836      2269  TIP3      H1             29.8923663627      -18.9429072815       42.3209504585  TIP3      2123            0.0000000000
     19837      2269  TIP3      H2             30.0469770624      -17.9918895594       41.1437658082  TIP3      2123            0.0000000000
     19838      2270  TIP3      OH2            28.1775511504      -23.8530041248       40.0912445165  TIP3      2124            0.0000000000
     19839      2270  TIP3      H1             28.6046384180      -23.1473050444       40.6110231228  TIP3      2124            0.0000000000
     19840      2270  TIP3      H2             27.3230648585      -23.4372525755       39.9020264905  TIP3      2124            0.0000000000
     19841      2271  TIP3      OH2            27.1934179397      -16.9499931898       40.0566527826  TIP3      2125            0.0000000000
     19842      2271  TIP3      H1             28.1299654561      -17.0806065586       40.2693844215  TIP3      2125            0.0000000000
     19843      2271  TIP3      H2             27.1157119435      -17.5063447509       39.2539293042  TIP3      2125            0.0000000000
     19844      2272  TIP3      OH2            27.7514041120      -29.5728130334       41.8630350938  TIP3      2126            0.0000000000
     19845      2272  TIP3      H1             28.4781112130      -29.2872053391       41.2771119224  TIP3      2126            0.0000000000
     19846      2272  TIP3      H2             27.0601755308      -28.9632482916       41.5725040512  TIP3      2126            0.0000000000
     19847      2273  TIP3      OH2            29.2867020834      -27.4407184413       39.8282678970  TIP3      2127            0.0000000000
     19848      2273  TIP3      H1             29.9418961162      -28.0627576294       39.4696108511  TIP3      2127            0.0000000000
     19849      2273  TIP3      H2             29.8717927505      -26.8827644288       40.3985222132  TIP3      2127            0.0000000000
     19850      2274  TIP3      OH2            29.0756559933      -12.8506602643       39.5173227522  TIP3      2128            0.0000000000
     19851      2274  TIP3      H1             28.8268150820      -12.2071286725       40.1990175528  TIP3      2128            0.0000000000
     19852      2274  TIP3      H2             30.0229861177      -12.9445652689       39.6882763848  TIP3      2128            0.0000000000
     19853      2275  TIP3      OH2           -19.6189152737       -2.8156251087       39.6922229060  TIP3      2129            0.0000000000
     19854      2275  TIP3      H1            -18.9445822181       -2.6088424031       40.3697540415  TIP3      2129            0.0000000000
     19855      2275  TIP3      H2            -19.2588102575       -3.6831327164       39.4128212391  TIP3      2129            0.0000000000
     19856      2276  TIP3      OH2           -17.4586202281       -2.4241820127       41.0940548479  TIP3      2130            0.0000000000
     19857      2276  TIP3      H1            -17.7928741034       -1.8832910149       41.8294826387  TIP3      2130            0.0000000000
     19858      2276  TIP3      H2            -16.9401362272       -1.7710337084       40.5539269211  TIP3      2130            0.0000000000
     19859      2277  TIP3      OH2           -13.6411080355      -10.8611442901       42.0610637303  TIP3      2131            0.0000000000
     19860      2277  TIP3      H1            -14.5487284565      -10.7242404112       41.7568528392  TIP3      2131            0.0000000000
     19861      2277  TIP3      H2            -13.1697862001      -10.1452861118       41.5745557197  TIP3      2131            0.0000000000
     19862      2278  TIP3      OH2           -12.5721204653        3.7103446416       39.7813758483  TIP3      2132            0.0000000000
     19863      2278  TIP3      H1            -12.3717869142        4.6366280405       40.0264827155  TIP3      2132            0.0000000000
     19864      2278  TIP3      H2            -11.8233816403        3.2816397255       40.2282702891  TIP3      2132            0.0000000000
     19865      2279  TIP3      OH2           -16.6468445045        6.0178915970       40.8006610176  TIP3      2133            0.0000000000
     19866      2279  TIP3      H1            -16.3528569443        5.4213498280       40.0731384736  TIP3      2133            0.0000000000
     19867      2279  TIP3      H2            -16.2520361000        5.5587436333       41.5748476596  TIP3      2133            0.0000000000
     19868      2280  TIP3      OH2           -15.7918379396       -0.8518184583       39.8952143693  TIP3      2134            0.0000000000
     19869      2280  TIP3      H1            -15.9843735299       -0.8715616470       38.9319429997  TIP3      2134            0.0000000000
     19870      2280  TIP3      H2            -14.8265455614       -0.9927500576       39.8456811806  TIP3      2134            0.0000000000
     19871      2281  TIP3      OH2           -20.1732439763       -7.7876364089       40.5930410765  TIP3      2135            0.0000000000
     19872      2281  TIP3      H1            -20.7592441848       -7.0262465267       40.5556318636  TIP3      2135            0.0000000000
     19873      2281  TIP3      H2            -20.5798911199       -8.3831389953       39.9459405378  TIP3      2135            0.0000000000
     19874      2282  TIP3      OH2           -23.6998410455       -7.2060614906       39.1883001843  TIP3      2136            0.0000000000
     19875      2282  TIP3      H1            -24.3950401184       -7.4575549968       39.8393951352  TIP3      2136            0.0000000000
     19876      2282  TIP3      H2            -24.1114527055       -6.4107002212       38.7771813251  TIP3      2136            0.0000000000
     19877      2283  TIP3      OH2           -29.2936856933       -7.3746042879       41.3451356400  TIP3      2137            0.0000000000
     19878      2283  TIP3      H1            -28.5928724905       -6.7044990082       41.2097973897  TIP3      2137            0.0000000000
     19879      2283  TIP3      H2            -29.9101522753       -6.9639689654       41.9780374540  TIP3      2137            0.0000000000
     19880      2284  TIP3      OH2           -24.2321101183       -4.2028257093       40.6749641545  TIP3      2138            0.0000000000
     19881      2284  TIP3      H1            -24.7729823950       -4.6112537302       39.9847220313  TIP3      2138            0.0000000000
     19882      2284  TIP3      H2            -23.4911015577       -3.8577711644       40.1215994854  TIP3      2138            0.0000000000
     19883      2285  TIP3      OH2           -17.6470152368       -6.8885936654       40.4640870710  TIP3      2139            0.0000000000
     19884      2285  TIP3      H1            -18.5118160226       -7.0687752890       40.8955576989  TIP3      2139            0.0000000000
     19885      2285  TIP3      H2            -17.2251322486       -6.3133255164       41.1382682365  TIP3      2139            0.0000000000
     19886      2286  TIP3      OH2           -16.8761054169       -4.8327710292       41.9591334430  TIP3      2140            0.0000000000
     19887      2286  TIP3      H1            -15.9154744896       -4.7559905485       42.0760495664  TIP3      2140            0.0000000000
     19888      2286  TIP3      H2            -17.0969550264       -4.0227860853       41.4492379758  TIP3      2140            0.0000000000
     19889      2287  TIP3      OH2           -19.3764310946        1.5436101209       41.7329570442  TIP3      2141            0.0000000000
     19890      2287  TIP3      H1            -19.8768419740        2.3827389586       41.7587968007  TIP3      2141            0.0000000000
     19891      2287  TIP3      H2            -20.0223078402        0.9215578206       42.0833507683  TIP3      2141            0.0000000000
     19892      2288  TIP3      OH2           -12.0233621813       -5.0205438037       41.9922313509  TIP3      2142            0.0000000000
     19893      2288  TIP3      H1            -12.5955061986       -5.4988953625       41.3668385853  TIP3      2142            0.0000000000
     19894      2288  TIP3      H2            -11.7100244514       -4.3195351256       41.3796440987  TIP3      2142            0.0000000000
     19895      2289  TIP3      OH2           -27.9926809534       -2.4744026460       40.4463397692  TIP3      2143            0.0000000000
     19896      2289  TIP3      H1            -27.5122494627       -1.7829752134       40.9443079579  TIP3      2143            0.0000000000
     19897      2289  TIP3      H2            -28.8841315830       -2.1264392944       40.5407429447  TIP3      2143            0.0000000000
     19898      2290  TIP3      OH2           -15.7039978501        2.1252230121       40.4309833685  TIP3      2144            0.0000000000
     19899      2290  TIP3      H1            -15.8222630305        2.3825882019       41.3600909513  TIP3      2144            0.0000000000
     19900      2290  TIP3      H2            -16.5861403337        1.7771345043       40.1887678031  TIP3      2144            0.0000000000
     19901      2291  TIP3      OH2           -11.9255440459        6.0720954348       40.7434614811  TIP3      2145            0.0000000000
     19902      2291  TIP3      H1            -11.2064776686        6.6858870286       40.5480988255  TIP3      2145            0.0000000000
     19903      2291  TIP3      H2            -12.5014542384        6.6220776047       41.3102403396  TIP3      2145            0.0000000000
     19904      2292  TIP3      OH2           -22.1798045451        3.1312073496       38.7483047138  TIP3      2146            0.0000000000
     19905      2292  TIP3      H1            -22.4873874166        2.5670749693       38.0225131823  TIP3      2146            0.0000000000
     19906      2292  TIP3      H2            -22.4017046970        2.5641540212       39.4989223918  TIP3      2146            0.0000000000
     19907      2293  TIP3      OH2           -23.5318323037        2.0697674527       41.3888399276  TIP3      2147            0.0000000000
     19908      2293  TIP3      H1            -22.6552335007        2.0674579357       41.7936937778  TIP3      2147            0.0000000000
     19909      2293  TIP3      H2            -23.7398932292        3.0156981855       41.5086203695  TIP3      2147            0.0000000000
     19910      2294  TIP3      OH2           -27.3516237004       -0.1822147652       41.7285184640  TIP3      2148            0.0000000000
     19911      2294  TIP3      H1            -26.7016541549       -0.4738816165       42.3811321594  TIP3      2148            0.0000000000
     19912      2294  TIP3      H2            -26.9869978127        0.6839667515       41.4754562330  TIP3      2148            0.0000000000
     19913      2295  TIP3      OH2           -20.9286571532        3.8961686554       41.8064657843  TIP3      2149            0.0000000000
     19914      2295  TIP3      H1            -21.7893412091        4.3489343564       41.9703868196  TIP3      2149            0.0000000000
     19915      2295  TIP3      H2            -20.3769407224        4.6680288182       41.5393245216  TIP3      2149            0.0000000000
     19916      2296  TIP3      OH2           -23.3096011867        4.9757677612       41.9788686107  TIP3      2150            0.0000000000
     19917      2296  TIP3      H1            -23.4594310218        5.5195307080       41.1761231336  TIP3      2150            0.0000000000
     19918      2296  TIP3      H2            -23.3911219279        5.6697816659       42.6614557001  TIP3      2150            0.0000000000
     19919      2297  TIP3      OH2           -25.0711513599       -8.2180196298       41.2865612770  TIP3      2151            0.0000000000
     19920      2297  TIP3      H1            -24.6124223550       -7.6086823940       41.9188906114  TIP3      2151            0.0000000000
     19921      2297  TIP3      H2            -24.3456736773       -8.8485057428       41.1486138194  TIP3      2151            0.0000000000
     19922      2298  TIP3      OH2           -26.6186774640        2.2652922168       40.5919028403  TIP3      2152            0.0000000000
     19923      2298  TIP3      H1            -26.0143113644        2.9613747517       40.8907162197  TIP3      2152            0.0000000000
     19924      2298  TIP3      H2            -25.9987303869        1.7475930225       40.0465798557  TIP3      2152            0.0000000000
     19925      2299  TIP3      OH2           -28.0109769833       -5.1529452292       40.1408738117  TIP3      2153            0.0000000000
     19926      2299  TIP3      H1            -27.9638262233       -4.1905030185       40.3125729965  TIP3      2153            0.0000000000
     19927      2299  TIP3      H2            -28.5659688660       -5.1815535079       39.3376307572  TIP3      2153            0.0000000000
     19928      2300  TIP3      OH2           -20.1844876475        5.1602732681       38.7742780793  TIP3      2154            0.0000000000
     19929      2300  TIP3      H1            -20.8021748348        4.3940195566       38.8118137823  TIP3      2154            0.0000000000
     19930      2300  TIP3      H2            -19.3737753879        4.7379095876       38.4132751076  TIP3      2154            0.0000000000
     19931      2301  TIP3      OH2           -15.7481568882        4.3485306902       38.8548094688  TIP3      2155            0.0000000000
     19932      2301  TIP3      H1            -15.5375750602        3.5866039032       39.4397400224  TIP3      2155            0.0000000000
     19933      2301  TIP3      H2            -14.9198116581        4.4195673921       38.3302763392  TIP3      2155            0.0000000000
     19934      2302  TIP3      OH2           -24.6454591936        0.4082352135       39.0387118271  TIP3      2156            0.0000000000
     19935      2302  TIP3      H1            -24.1039449774        0.2832394987       39.8433438430  TIP3      2156            0.0000000000
     19936      2302  TIP3      H2            -23.9707268448        0.2841182771       38.3404372713  TIP3      2156            0.0000000000
     19937      2303  TIP3      OH2           -18.8197299522        1.8303203755       38.9653632224  TIP3      2157            0.0000000000
     19938      2303  TIP3      H1            -19.0387102115        1.6828281027       39.9094374167  TIP3      2157            0.0000000000
     19939      2303  TIP3      H2            -19.0642770095        0.9573787782       38.5790671485  TIP3      2157            0.0000000000
     19940      2304  TIP3      OH2           -23.2539635819       -1.5955386462       41.1663835316  TIP3      2158            0.0000000000
     19941      2304  TIP3      H1            -24.0114781349       -2.1282573039       41.4433105593  TIP3      2158            0.0000000000
     19942      2304  TIP3      H2            -22.8751051945       -2.1439428226       40.4496750182  TIP3      2158            0.0000000000
     19943      2305  TIP3      OH2           -22.1598961993       -3.1391865977       39.2134628315  TIP3      2159            0.0000000000
     19944      2305  TIP3      H1            -22.4251319629       -3.0960050810       38.2731431751  TIP3      2159            0.0000000000
     19945      2305  TIP3      H2            -21.1816125426       -3.0125044164       39.1117876567  TIP3      2159            0.0000000000
     19946      2306  TIP3      OH2           -13.2253306587       -1.1127220233       38.9425700389  TIP3      2160            0.0000000000
     19947      2306  TIP3      H1            -13.2105093084       -1.3704234195       37.9922814330  TIP3      2160            0.0000000000
     19948      2306  TIP3      H2            -13.1763227027       -0.1211501663       38.8532451880  TIP3      2160            0.0000000000
     19949      2307  TIP3      OH2           -23.2539152637        7.2446986838       40.2475507566  TIP3      2161            0.0000000000
     19950      2307  TIP3      H1            -22.3608448108        7.5993167848       40.0993226179  TIP3      2161            0.0000000000
     19951      2307  TIP3      H2            -23.7755987439        7.9683917765       39.8251139217  TIP3      2161            0.0000000000
     19952      2308  TIP3      OH2           -29.3046993335        1.9436930226       39.7570951932  TIP3      2162            0.0000000000
     19953      2308  TIP3      H1            -28.3863318422        2.1106529179       40.0504711828  TIP3      2162            0.0000000000
     19954      2308  TIP3      H2            -29.1801771337        1.4041649567       38.9597417864  TIP3      2162            0.0000000000
     19955      2309  TIP3      OH2           -11.4710490070       -2.2704653417       40.8360549686  TIP3      2163            0.0000000000
     19956      2309  TIP3      H1            -12.0570374244       -2.0775223987       40.0750452368  TIP3      2163            0.0000000000
     19957      2309  TIP3      H2            -11.7265374361       -1.5599776374       41.4625003231  TIP3      2163            0.0000000000
     19958      2310  TIP3      OH2           -13.8331357182       -4.7937020346       39.5282036206  TIP3      2164            0.0000000000
     19959      2310  TIP3      H1            -13.3879954330       -4.3144572142       38.8106411043  TIP3      2164            0.0000000000
     19960      2310  TIP3      H2            -14.0664875177       -5.6434937767       39.0950302064  TIP3      2164            0.0000000000
     19961      2311  TIP3      OH2           -14.2390861219       -7.5003881628       39.1853140880  TIP3      2165            0.0000000000
     19962      2311  TIP3      H1            -13.5975620720       -8.1089180951       39.6120049938  TIP3      2165            0.0000000000
     19963      2311  TIP3      H2            -14.8434639514       -7.3563601700       39.9302350235  TIP3      2165            0.0000000000
     19964      2312  TIP3      OH2           -12.3033578108       -9.0718845697       40.6270288961  TIP3      2166            0.0000000000
     19965      2312  TIP3      H1            -11.9761806853       -9.6151610864       39.8610898702  TIP3      2166            0.0000000000
     19966      2312  TIP3      H2            -11.4754984553       -8.6395360663       40.9294662764  TIP3      2166            0.0000000000
     19967      2313  TIP3      OH2           -28.9989715055      -10.0517450017       41.4701230708  TIP3      2167            0.0000000000
     19968      2313  TIP3      H1            -28.1053120924      -10.1000462465       41.1141215721  TIP3      2167            0.0000000000
     19969      2313  TIP3      H2            -29.0705943248       -9.0655658069       41.5352426996  TIP3      2167            0.0000000000
     19970      2314  TIP3      OH2           -27.1962367754       -8.5170528672       39.8196163986  TIP3      2168            0.0000000000
     19971      2314  TIP3      H1            -26.6740485233       -9.0997886476       39.2334533352  TIP3      2168            0.0000000000
     19972      2314  TIP3      H2            -26.5596370625       -8.3888644439       40.5599447872  TIP3      2168            0.0000000000
     19973      2315  TIP3      OH2           -19.3804467792        6.1137942365       41.0950887525  TIP3      2169            0.0000000000
     19974      2315  TIP3      H1            -18.4111085986        6.2191023750       41.0364755395  TIP3      2169            0.0000000000
     19975      2315  TIP3      H2            -19.6200816826        5.9559127379       40.1502498851  TIP3      2169            0.0000000000
     19976      2316  TIP3      OH2           -27.3252732180        6.2676784157       39.9393676613  TIP3      2170            0.0000000000
     19977      2316  TIP3      H1            -27.2404874769        6.4515088483       40.8932250583  TIP3      2170            0.0000000000
     19978      2316  TIP3      H2            -26.5745049484        5.6587393172       39.7999443904  TIP3      2170            0.0000000000
     19979      2317  TIP3      OH2            -1.2201488907       -3.2925975563       40.4050979836  TIP3      2171            0.0000000000
     19980      2317  TIP3      H1             -0.4200754034       -2.8337299234       40.7436256636  TIP3      2171            0.0000000000
     19981      2317  TIP3      H2             -0.7581054823       -3.8513781258       39.7570735354  TIP3      2171            0.0000000000
     19982      2318  TIP3      OH2             1.3382076605       -2.5146112755       40.9660028001  TIP3      2172            0.0000000000
     19983      2318  TIP3      H1              1.1117560935       -1.9734527408       41.7359233161  TIP3      2172            0.0000000000
     19984      2318  TIP3      H2              1.8977194753       -1.8952511892       40.4369145413  TIP3      2172            0.0000000000
     19985      2319  TIP3      OH2             5.0423140997      -10.7883652944       42.1153250170  TIP3      2173            0.0000000000
     19986      2319  TIP3      H1              4.2265009470      -10.7621644067       42.6367188614  TIP3      2173            0.0000000000
     19987      2319  TIP3      H2              5.1122212440       -9.8952047703       41.7457459636  TIP3      2173            0.0000000000
     19988      2320  TIP3      OH2             6.1942802458        3.7398801015       39.8305551013  TIP3      2174            0.0000000000
     19989      2320  TIP3      H1              6.5508996064        4.6494183400       39.8445191768  TIP3      2174            0.0000000000
     19990      2320  TIP3      H2              6.7310894330        3.3153918364       40.5155130678  TIP3      2174            0.0000000000
     19991      2321  TIP3      OH2             2.1872493012        6.0569748173       40.7781493066  TIP3      2175            0.0000000000
     19992      2321  TIP3      H1              2.4737268798        5.4629080624       40.0416648082  TIP3      2175            0.0000000000
     19993      2321  TIP3      H2              2.5803962806        5.5846282613       41.5414641711  TIP3      2175            0.0000000000
     19994      2322  TIP3      OH2             3.0955836720       -0.8561242304       39.9863842919  TIP3      2176            0.0000000000
     19995      2322  TIP3      H1              2.8889290020       -0.8315871592       39.0289412803  TIP3      2176            0.0000000000
     19996      2322  TIP3      H2              4.0671866594       -0.9195417153       39.9288936530  TIP3      2176            0.0000000000
     19997      2323  TIP3      OH2            -1.2075014296       -7.9351336860       40.5887309212  TIP3      2177            0.0000000000
     19998      2323  TIP3      H1             -1.9898132576       -7.3659982095       40.5931068325  TIP3      2177            0.0000000000
     19999      2323  TIP3      H2             -1.2671169809       -8.3470185167       39.7220724863  TIP3      2177            0.0000000000
     20000      2324  TIP3      OH2            -5.2651919296       -6.9210446547       39.1586074497  TIP3      2178            0.0000000000
     20001      2324  TIP3      H1             -5.6757237215       -6.9763682602       40.0432630953  TIP3      2178            0.0000000000
     20002      2324  TIP3      H2             -5.7833938123       -6.1883624897       38.7619807451  TIP3      2178            0.0000000000
     20003      2325  TIP3      OH2           -10.5454387057       -7.3790322569       41.8009190887  TIP3      2179            0.0000000000
     20004      2325  TIP3      H1             -9.7484091894       -7.1803708369       41.2627005790  TIP3      2179            0.0000000000
     20005      2325  TIP3      H2            -10.9362320139       -6.4838182153       41.8460908821  TIP3      2179            0.0000000000
     20006      2326  TIP3      OH2            -6.1712582728       -4.5619418185       40.9930567910  TIP3      2180            0.0000000000
     20007      2326  TIP3      H1             -6.5303212194       -4.4248735344       40.0865510068  TIP3      2180            0.0000000000
     20008      2326  TIP3      H2             -5.2287520489       -4.4715684842       40.8165632536  TIP3      2180            0.0000000000
     20009      2327  TIP3      OH2             1.5501497958       -7.2792453095       41.0655942022  TIP3      2181            0.0000000000
     20010      2327  TIP3      H1              0.7186032764       -7.5344306167       41.5130310268  TIP3      2181            0.0000000000
     20011      2327  TIP3      H2              1.6940803192       -6.3541243617       41.3865450532  TIP3      2181            0.0000000000
     20012      2328  TIP3      OH2             2.1582825822       -4.8441268650       42.0406992993  TIP3      2182            0.0000000000
     20013      2328  TIP3      H1              3.0784219561       -4.5889030237       42.1787126751  TIP3      2182            0.0000000000
     20014      2328  TIP3      H2              1.8476636974       -4.1456298175       41.4261402949  TIP3      2182            0.0000000000
     20015      2329  TIP3      OH2            -0.5675598173        1.4570598809       41.5079986213  TIP3      2183            0.0000000000
     20016      2329  TIP3      H1             -1.0375606396        2.3082392033       41.6205885530  TIP3      2183            0.0000000000
     20017      2329  TIP3      H2             -1.2332762537        0.8105879879       41.7820786502  TIP3      2183            0.0000000000
     20018      2330  TIP3      OH2             6.8517136296       -4.9498225406       42.2437788516  TIP3      2184            0.0000000000
     20019      2330  TIP3      H1              6.2771746447       -5.1792518517       41.4756092697  TIP3      2184            0.0000000000
     20020      2330  TIP3      H2              7.2508990171       -4.1281902948       41.8963324010  TIP3      2184            0.0000000000
     20021      2331  TIP3      OH2            -8.5405543795       -2.0405536283       40.1082657221  TIP3      2185            0.0000000000
     20022      2331  TIP3      H1             -8.3798385825       -1.2863121880       40.7094177324  TIP3      2185            0.0000000000
     20023      2331  TIP3      H2             -9.4339033394       -2.2966645667       40.4017880597  TIP3      2185            0.0000000000
     20024      2332  TIP3      OH2             2.9600031326        2.0860330335       40.3032597185  TIP3      2186            0.0000000000
     20025      2332  TIP3      H1              2.7961250609        2.2080491011       41.2478447812  TIP3      2186            0.0000000000
     20026      2332  TIP3      H2              2.2428263069        1.4736100124       40.0565078578  TIP3      2186            0.0000000000
     20027      2333  TIP3      OH2             6.9672283266        6.2228264623       40.4803946732  TIP3      2187            0.0000000000
     20028      2333  TIP3      H1              7.6193455739        6.9379001016       40.5393417663  TIP3      2187            0.0000000000
     20029      2333  TIP3      H2              6.3551399118        6.5078017840       41.1803770162  TIP3      2187            0.0000000000
     20030      2334  TIP3      OH2            -3.1693351954        3.1310130940       38.9744917561  TIP3      2188            0.0000000000
     20031      2334  TIP3      H1             -3.3891471841        2.6052555661       38.1927923740  TIP3      2188            0.0000000000
     20032      2334  TIP3      H2             -3.6679318393        2.6220562782       39.6466711033  TIP3      2188            0.0000000000
     20033      2335  TIP3      OH2            -4.5191424013        2.2743029116       41.2220644591  TIP3      2189            0.0000000000
     20034      2335  TIP3      H1             -3.8026777681        2.0016974145       41.8047391677  TIP3      2189            0.0000000000
     20035      2335  TIP3      H2             -4.7812400298        3.1175913849       41.6483954068  TIP3      2189            0.0000000000
     20036      2336  TIP3      OH2            -8.5178052914       -0.2053004005       42.0143335819  TIP3      2190            0.0000000000
     20037      2336  TIP3      H1             -8.7086788420       -0.9459551702       42.6234007129  TIP3      2190            0.0000000000
     20038      2336  TIP3      H2             -7.5602906286       -0.0877423503       42.1988125306  TIP3      2190            0.0000000000
     20039      2337  TIP3      OH2            -2.1072231830        3.9295891090       41.7163189275  TIP3      2191            0.0000000000
     20040      2337  TIP3      H1             -2.9986484171        4.0731062802       41.3460589563  TIP3      2191            0.0000000000
     20041      2337  TIP3      H2             -1.6415380367        4.7439391553       41.4403452746  TIP3      2191            0.0000000000
     20042      2338  TIP3      OH2            -5.0186771496        4.6364620660       42.4803156736  TIP3      2192            0.0000000000
     20043      2338  TIP3      H1             -5.1178682700        5.3819084882       41.8603615555  TIP3      2192            0.0000000000
     20044      2338  TIP3      H2             -4.7144850882        5.1201637247       43.2540277738  TIP3      2192            0.0000000000
     20045      2339  TIP3      OH2            -6.1787893874       -8.3424270438       41.4169210303  TIP3      2193            0.0000000000
     20046      2339  TIP3      H1             -5.7731556219       -7.7350184632       42.0833532830  TIP3      2193            0.0000000000
     20047      2339  TIP3      H2             -5.4130191490       -8.8698422000       41.1462453170  TIP3      2193            0.0000000000
     20048      2340  TIP3      OH2            -7.7822680236        2.5666944236       40.3429239474  TIP3      2194            0.0000000000
     20049      2340  TIP3      H1             -7.5212776408        3.2837107459       40.9368818621  TIP3      2194            0.0000000000
     20050      2340  TIP3      H2             -6.9822050320        2.0196187324       40.3313005592  TIP3      2194            0.0000000000
     20051      2341  TIP3      OH2            -9.5319621395       -4.8672928106       40.0200667742  TIP3      2195            0.0000000000
     20052      2341  TIP3      H1             -8.8301234288       -4.2606503600       40.3106348030  TIP3      2195            0.0000000000
     20053      2341  TIP3      H2             -9.8631716724       -4.3969115994       39.2339789620  TIP3      2195            0.0000000000
     20054      2342  TIP3      OH2            -1.4496978676        5.3002154131       38.7354374314  TIP3      2196            0.0000000000
     20055      2342  TIP3      H1             -1.9698831060        4.4667264814       38.8416746059  TIP3      2196            0.0000000000
     20056      2342  TIP3      H2             -0.6489055920        4.9433912216       38.2763636650  TIP3      2196            0.0000000000
     20057      2343  TIP3      OH2             3.0429181800        4.4495665357       38.8139860021  TIP3      2197            0.0000000000
     20058      2343  TIP3      H1              3.1671749079        3.6547424565       39.3768736568  TIP3      2197            0.0000000000
     20059      2343  TIP3      H2              3.8756550489        4.4336726994       38.2997530647  TIP3      2197            0.0000000000
     20060      2344  TIP3      OH2            -5.6832143365        0.2865156163       38.5979280127  TIP3      2198            0.0000000000
     20061      2344  TIP3      H1             -5.3763945672       -0.0919713610       39.4273868474  TIP3      2198            0.0000000000
     20062      2344  TIP3      H2             -4.9214067690        0.0963097065       38.0133478815  TIP3      2198            0.0000000000
     20063      2345  TIP3      OH2             0.1320719010        1.7445579176       38.8383253244  TIP3      2199            0.0000000000
     20064      2345  TIP3      H1             -0.0423142989        1.6616974648       39.8006013768  TIP3      2199            0.0000000000
     20065      2345  TIP3      H2             -0.1116542337        0.8409095195       38.5340283791  TIP3      2199            0.0000000000
     20066      2346  TIP3      OH2            -4.7407988113       -1.4115540797       41.0358589577  TIP3      2200            0.0000000000
     20067      2346  TIP3      H1             -4.9977857619       -1.9568602061       41.7910385823  TIP3      2200            0.0000000000
     20068      2346  TIP3      H2             -4.5771541425       -2.0975577994       40.3508905523  TIP3      2200            0.0000000000
     20069      2347  TIP3      OH2            -3.7848057661       -3.2340260349       39.3728127473  TIP3      2201            0.0000000000
     20070      2347  TIP3      H1             -3.5011450882       -3.1793514570       38.4393041117  TIP3      2201            0.0000000000
     20071      2347  TIP3      H2             -2.9164777803       -3.2735961435       39.8328739216  TIP3      2201            0.0000000000
     20072      2348  TIP3      OH2             5.9379267541       -0.9810542163       39.3188299737  TIP3      2202            0.0000000000
     20073      2348  TIP3      H1              5.7132476613       -1.3199315164       38.4336899988  TIP3      2202            0.0000000000
     20074      2348  TIP3      H2              5.9680922972       -0.0068073752       39.1061835919  TIP3      2202            0.0000000000
     20075      2349  TIP3      OH2            -3.6215672103        7.0151090973       41.5026221485  TIP3      2203            0.0000000000
     20076      2349  TIP3      H1             -2.6762672008        7.2367479002       41.5475965625  TIP3      2203            0.0000000000
     20077      2349  TIP3      H2             -3.8651423476        7.4630808110       40.6706564419  TIP3      2203            0.0000000000
     20078      2350  TIP3      OH2           -10.4295303121        2.0222288405       40.3745923963  TIP3      2204            0.0000000000
     20079      2350  TIP3      H1             -9.4551022157        2.1290243107       40.2882702795  TIP3      2204            0.0000000000
     20080      2350  TIP3      H2            -10.5832655744        1.3811002328       39.6606479712  TIP3      2204            0.0000000000
     20081      2351  TIP3      OH2             7.5651349088       -2.4706615969       40.9484161405  TIP3      2205            0.0000000000
     20082      2351  TIP3      H1              6.9999495080       -2.1770098449       40.1963135799  TIP3      2205            0.0000000000
     20083      2351  TIP3      H2              7.2318679412       -1.8602106081       41.6395403281  TIP3      2205            0.0000000000
     20084      2352  TIP3      OH2             5.4842069619       -5.0479383381       39.7631752781  TIP3      2206            0.0000000000
     20085      2352  TIP3      H1              5.9069069768       -4.6846322038       38.9677080453  TIP3      2206            0.0000000000
     20086      2352  TIP3      H2              4.9394523533       -5.7612929168       39.3724357518  TIP3      2206            0.0000000000
     20087      2353  TIP3      OH2             4.5202751274       -7.5746329746       38.9560419265  TIP3      2207            0.0000000000
     20088      2353  TIP3      H1              5.0145211275       -8.0937611811       39.6203385156  TIP3      2207            0.0000000000
     20089      2353  TIP3      H2              3.6231692372       -7.5801404163       39.3383361812  TIP3      2207            0.0000000000
     20090      2354  TIP3      OH2             6.5855787800       -8.6469929896       40.6515668970  TIP3      2208            0.0000000000
     20091      2354  TIP3      H1              6.9405069675       -8.3626342113       39.7896878177  TIP3      2208            0.0000000000
     20092      2354  TIP3      H2              7.2251665073       -8.1839342088       41.2404369556  TIP3      2208            0.0000000000
     20093      2355  TIP3      OH2            -9.5344040261      -10.4970100195       41.3996478692  TIP3      2209            0.0000000000
     20094      2355  TIP3      H1             -9.2571577553       -9.7105204864       40.8779927160  TIP3      2209            0.0000000000
     20095      2355  TIP3      H2             -9.5148345941      -10.0794741197       42.2810090127  TIP3      2209            0.0000000000
     20096      2356  TIP3      OH2            -8.3590101234       -8.4164064138       39.9602845095  TIP3      2210            0.0000000000
     20097      2356  TIP3      H1             -8.0431584590       -9.0878468502       39.3213005435  TIP3      2210            0.0000000000
     20098      2356  TIP3      H2             -7.5466360943       -8.3461332136       40.5113166288  TIP3      2210            0.0000000000
     20099      2357  TIP3      OH2            -0.5508685770        6.3193444829       41.1402188078  TIP3      2211            0.0000000000
     20100      2357  TIP3      H1              0.4128708454        6.3493445243       40.9786244383  TIP3      2211            0.0000000000
     20101      2357  TIP3      H2             -0.8765640805        6.2131906766       40.2180238859  TIP3      2211            0.0000000000
     20102      2358  TIP3      OH2            -8.7221338543        6.0820923811       39.2412312785  TIP3      2212            0.0000000000
     20103      2358  TIP3      H1             -8.7301917200        6.5284833012       40.1070250457  TIP3      2212            0.0000000000
     20104      2358  TIP3      H2             -7.9454158984        5.5046698597       39.2953191780  TIP3      2212            0.0000000000
     20105      2359  TIP3      OH2            17.8424516350       -3.1665066170       40.3448544643  TIP3      2213            0.0000000000
     20106      2359  TIP3      H1             18.6606620187       -2.8360945455       40.7671971279  TIP3      2213            0.0000000000
     20107      2359  TIP3      H2             18.2577002492       -3.9016295894       39.8399591161  TIP3      2213            0.0000000000
     20108      2360  TIP3      OH2            20.3297549212       -2.4889622880       41.2110723641  TIP3      2214            0.0000000000
     20109      2360  TIP3      H1             20.3599065173       -1.9729113265       42.0335024424  TIP3      2214            0.0000000000
     20110      2360  TIP3      H2             21.0062040027       -2.0360569045       40.6418099589  TIP3      2214            0.0000000000
     20111      2361  TIP3      OH2            23.8565581698      -10.7932913310       42.0181234559  TIP3      2215            0.0000000000
     20112      2361  TIP3      H1             22.8926384728      -10.8210053129       42.1413519814  TIP3      2215            0.0000000000
     20113      2361  TIP3      H2             24.0166523865       -9.9581828070       41.5205689235  TIP3      2215            0.0000000000
     20114      2362  TIP3      OH2            25.2235894935        3.2603957676       39.8624416479  TIP3      2216            0.0000000000
     20115      2362  TIP3      H1             25.5981243052        4.1469680225       39.7472190098  TIP3      2216            0.0000000000
     20116      2362  TIP3      H2             26.0127610619        2.7646932180       40.1583902432  TIP3      2216            0.0000000000
     20117      2363  TIP3      OH2            21.3901628297        6.2880325932       40.8202775895  TIP3      2217            0.0000000000
     20118      2363  TIP3      H1             21.6307638075        5.6375370879       40.1287872767  TIP3      2217            0.0000000000
     20119      2363  TIP3      H2             21.6577250942        5.7738284404       41.6024604327  TIP3      2217            0.0000000000
     20120      2364  TIP3      OH2            22.0464222908       -0.9529382839       39.9953707153  TIP3      2218            0.0000000000
     20121      2364  TIP3      H1             21.7177544428       -0.6768315609       39.1146917682  TIP3      2218            0.0000000000
     20122      2364  TIP3      H2             22.9938535055       -1.0664134573       39.7718787347  TIP3      2218            0.0000000000
     20123      2365  TIP3      OH2            17.6005470870       -7.8826867319       40.6360846214  TIP3      2219            0.0000000000
     20124      2365  TIP3      H1             16.8412446205       -7.4198062488       41.0028422039  TIP3      2219            0.0000000000
     20125      2365  TIP3      H2             17.2108136347       -8.4406363823       39.9513688951  TIP3      2219            0.0000000000
     20126      2366  TIP3      OH2            13.7083650717       -7.1849844567       39.2228777365  TIP3      2220            0.0000000000
     20127      2366  TIP3      H1             13.0627707072       -7.4611587881       39.9045745043  TIP3      2220            0.0000000000
     20128      2366  TIP3      H2             13.2732893422       -6.3910259904       38.8523845866  TIP3      2220            0.0000000000
     20129      2367  TIP3      OH2             8.4144767856       -7.1245338391       41.7061367883  TIP3      2221            0.0000000000
     20130      2367  TIP3      H1              9.1245757936       -6.6029102802       41.2910093879  TIP3      2221            0.0000000000
     20131      2367  TIP3      H2              7.8156296516       -6.3951607122       41.9888089550  TIP3      2221            0.0000000000
     20132      2368  TIP3      OH2            13.4687903907       -4.3090896729       40.2583079209  TIP3      2222            0.0000000000
     20133      2368  TIP3      H1             12.8610379988       -4.5039947352       39.5324749803  TIP3      2222            0.0000000000
     20134      2368  TIP3      H2             14.1309255908       -3.7450777364       39.8023441425  TIP3      2222            0.0000000000
     20135      2369  TIP3      OH2            19.9118874249       -6.7927050493       40.0503801630  TIP3      2223            0.0000000000
     20136      2369  TIP3      H1             19.0377647554       -7.0329429805       40.4578996377  TIP3      2223            0.0000000000
     20137      2369  TIP3      H2             20.3384721533       -6.2724553787       40.7721536543  TIP3      2223            0.0000000000
     20138      2370  TIP3      OH2            20.8960370694       -5.0836744444       41.8568413909  TIP3      2224            0.0000000000
     20139      2370  TIP3      H1             21.7744308224       -4.9293397828       42.2308932801  TIP3      2224            0.0000000000
     20140      2370  TIP3      H2             20.6847293624       -4.2214093463       41.4399152912  TIP3      2224            0.0000000000
     20141      2371  TIP3      OH2            18.2733576572        1.6936227346       41.6432688706  TIP3      2225            0.0000000000
     20142      2371  TIP3      H1             17.5644708215        2.3529125916       41.6642682315  TIP3      2225            0.0000000000
     20143      2371  TIP3      H2             17.8655568877        0.9764777578       42.1434649451  TIP3      2225            0.0000000000
     20144      2372  TIP3      OH2            25.4193657930       -5.0092140660       41.6603838366  TIP3      2226            0.0000000000
     20145      2372  TIP3      H1             24.7125848291       -5.1676621858       40.9918366457  TIP3      2226            0.0000000000
     20146      2372  TIP3      H2             25.7539903399       -4.1485066772       41.3338627415  TIP3      2226            0.0000000000
     20147      2373  TIP3      OH2            10.3360054234       -2.0652013468       40.2168475492  TIP3      2227            0.0000000000
     20148      2373  TIP3      H1             10.6327884762       -1.3906506461       40.8552977055  TIP3      2227            0.0000000000
     20149      2373  TIP3      H2              9.3851837196       -2.1130760572       40.4562860748  TIP3      2227            0.0000000000
     20150      2374  TIP3      OH2            21.8016066714        1.9826394151       40.4857587440  TIP3      2228            0.0000000000
     20151      2374  TIP3      H1             21.7056252012        2.2555015677       41.4041653399  TIP3      2228            0.0000000000
     20152      2374  TIP3      H2             20.9101648077        1.6430694941       40.2824277339  TIP3      2228            0.0000000000
     20153      2375  TIP3      OH2            25.6419936596        6.1901604461       41.4539509708  TIP3      2229            0.0000000000
     20154      2375  TIP3      H1             26.4077460820        6.5010540470       40.9566315751  TIP3      2229            0.0000000000
     20155      2375  TIP3      H2             24.9598870625        6.8122275307       41.1581537154  TIP3      2229            0.0000000000
     20156      2376  TIP3      OH2            15.7245594574        3.0411487300       38.6621773419  TIP3      2230            0.0000000000
     20157      2376  TIP3      H1             15.4356408798        2.5751839271       37.8560898229  TIP3      2230            0.0000000000
     20158      2376  TIP3      H2             15.3220724967        2.4917436537       39.3595097167  TIP3      2230            0.0000000000
     20159      2377  TIP3      OH2            14.3531779863        2.0804706911       41.3702661328  TIP3      2231            0.0000000000
     20160      2377  TIP3      H1             14.7152850756        1.8922791097       42.2437977059  TIP3      2231            0.0000000000
     20161      2377  TIP3      H2             14.1924893640        3.0430419153       41.4764693531  TIP3      2231            0.0000000000
     20162      2378  TIP3      OH2            10.4120418900       -0.1808145046       42.1959086323  TIP3      2232            0.0000000000
     20163      2378  TIP3      H1              9.9961700095       -0.7675129432       42.8511416221  TIP3      2232            0.0000000000
     20164      2378  TIP3      H2             11.3627133990       -0.2138717946       42.4604212764  TIP3      2232            0.0000000000
     20165      2379  TIP3      OH2            16.5258694359        4.0719136573       41.5290463921  TIP3      2233            0.0000000000
     20166      2379  TIP3      H1             15.7297747567        4.6212430282       41.6450366103  TIP3      2233            0.0000000000
     20167      2379  TIP3      H2             16.9985486298        4.5305978021       40.7989562261  TIP3      2233            0.0000000000
     20168      2380  TIP3      OH2            13.7861003870        4.6822514718       42.2288631770  TIP3      2234            0.0000000000
     20169      2380  TIP3      H1             13.9117139448        5.2613243336       41.4537479200  TIP3      2234            0.0000000000
     20170      2380  TIP3      H2             13.4858981608        5.3540881228       42.8667385202  TIP3      2234            0.0000000000
     20171      2381  TIP3      OH2            12.5077671482       -8.4942711409       41.1891143980  TIP3      2235            0.0000000000
     20172      2381  TIP3      H1             12.9333572513       -7.9594575083       41.8980482314  TIP3      2235            0.0000000000
     20173      2381  TIP3      H2             13.2803171582       -8.9262330902       40.7840471039  TIP3      2235            0.0000000000
     20174      2382  TIP3      OH2            11.0201184843        2.4582721113       40.4625396514  TIP3      2236            0.0000000000
     20175      2382  TIP3      H1             11.4186921536        3.0152134073       41.1469914948  TIP3      2236            0.0000000000
     20176      2382  TIP3      H2             11.7133961685        1.7933663216       40.3093959249  TIP3      2236            0.0000000000
     20177      2383  TIP3      OH2             9.3904644518       -4.7446873130       40.3059662798  TIP3      2237            0.0000000000
     20178      2383  TIP3      H1             10.0285512519       -3.9996083600       40.2836303862  TIP3      2237            0.0000000000
     20179      2383  TIP3      H2              8.6551389653       -4.4089794204       39.7731662359  TIP3      2237            0.0000000000
     20180      2384  TIP3      OH2            17.8126306992        4.7340116199       39.2069974973  TIP3      2238            0.0000000000
     20181      2384  TIP3      H1             17.1379573995        4.0814327385       38.8775446639  TIP3      2238            0.0000000000
     20182      2384  TIP3      H2             18.5646330579        4.4672586736       38.6289181413  TIP3      2238            0.0000000000
     20183      2385  TIP3      OH2            22.2161956086        4.4257742592       38.8595907713  TIP3      2239            0.0000000000
     20184      2385  TIP3      H1             22.5241913579        3.7559687608       39.4969292125  TIP3      2239            0.0000000000
     20185      2385  TIP3      H2             23.0374260783        4.6320553664       38.3617647743  TIP3      2239            0.0000000000
     20186      2386  TIP3      OH2            13.1674305786        0.1904009419       38.8635050364  TIP3      2240            0.0000000000
     20187      2386  TIP3      H1             13.5728035847        0.2491645974       39.7397552396  TIP3      2240            0.0000000000
     20188      2386  TIP3      H2             13.9435326236        0.0224455016       38.2899354503  TIP3      2240            0.0000000000
     20189      2387  TIP3      OH2            19.0133680870        1.5330987628       38.9097839941  TIP3      2241            0.0000000000
     20190      2387  TIP3      H1             18.6590822125        1.6426716495       39.8138565781  TIP3      2241            0.0000000000
     20191      2387  TIP3      H2             18.5929372794        0.6869972920       38.6329045149  TIP3      2241            0.0000000000
     20192      2388  TIP3      OH2            14.4088518773       -1.5501561448       41.2116692059  TIP3      2242            0.0000000000
     20193      2388  TIP3      H1             13.7030534727       -2.2190511071       41.1951971092  TIP3      2242            0.0000000000
     20194      2388  TIP3      H2             14.9600481195       -1.8331892549       40.4453834811  TIP3      2242            0.0000000000
     20195      2389  TIP3      OH2            15.4296289878       -2.8938984588       39.2006216993  TIP3      2243            0.0000000000
     20196      2389  TIP3      H1             15.6453533387       -2.3035474770       38.4493553672  TIP3      2243            0.0000000000
     20197      2389  TIP3      H2             16.3187902086       -3.1516654921       39.5404052867  TIP3      2243            0.0000000000
     20198      2390  TIP3      OH2            24.5275545984       -1.2974923693       38.9451452164  TIP3      2244            0.0000000000
     20199      2390  TIP3      H1             24.6060700344       -1.6785790520       38.0418416076  TIP3      2244            0.0000000000
     20200      2390  TIP3      H2             24.5514513425       -0.3313843689       38.7454634420  TIP3      2244            0.0000000000
     20201      2391  TIP3      OH2            15.1170841334        6.8208012453       41.3653023759  TIP3      2245            0.0000000000
     20202      2391  TIP3      H1             16.0842676451        6.9547170236       41.3049417164  TIP3      2245            0.0000000000
     20203      2391  TIP3      H2             14.8436667678        7.4618190621       40.6840983330  TIP3      2245            0.0000000000
     20204      2392  TIP3      OH2             8.3827778022        1.9148328049       40.6242516538  TIP3      2246            0.0000000000
     20205      2392  TIP3      H1              9.3242155459        2.1567874306       40.4862160860  TIP3      2246            0.0000000000
     20206      2392  TIP3      H2              8.3604859761        1.0889711036       40.1096118809  TIP3      2246            0.0000000000
     20207      2393  TIP3      OH2            26.0826746248       -2.4152400849       40.8450667545  TIP3      2247            0.0000000000
     20208      2393  TIP3      H1             25.5058154082       -2.1943742013       40.0736833996  TIP3      2247            0.0000000000
     20209      2393  TIP3      H2             25.7180934397       -1.7972400058       41.5018990233  TIP3      2247            0.0000000000
     20210      2394  TIP3      OH2            23.7002787075       -5.0206096751       39.4903228261  TIP3      2248            0.0000000000
     20211      2394  TIP3      H1             24.2217835533       -4.4845354546       38.8489924716  TIP3      2248            0.0000000000
     20212      2394  TIP3      H2             23.5057547298       -5.7987914068       38.9454676542  TIP3      2248            0.0000000000
     20213      2395  TIP3      OH2            23.5091936069       -8.1878807513       38.8418500915  TIP3      2249            0.0000000000
     20214      2395  TIP3      H1             24.2433366449       -8.4387159817       39.4516630686  TIP3      2249            0.0000000000
     20215      2395  TIP3      H2             22.8349307036       -7.8861847764       39.4636270024  TIP3      2249            0.0000000000
     20216      2396  TIP3      OH2            25.3926606902       -8.9705651359       40.6653401392  TIP3      2250            0.0000000000
     20217      2396  TIP3      H1             25.7847972472       -9.7462802780       40.1947787392  TIP3      2250            0.0000000000
     20218      2396  TIP3      H2             26.2014210540       -8.4598918377       40.8606961981  TIP3      2250            0.0000000000
     20219      2397  TIP3      OH2             9.3292608369      -10.5661095718       41.6083114658  TIP3      2251            0.0000000000
     20220      2397  TIP3      H1              9.9002975399       -9.9796070346       41.0637043939  TIP3      2251            0.0000000000
     20221      2397  TIP3      H2              9.5795864407      -10.2396869473       42.5043622174  TIP3      2251            0.0000000000
     20222      2398  TIP3      OH2            10.2768744872       -9.0599015292       39.7468558970  TIP3      2252            0.0000000000
     20223      2398  TIP3      H1             10.8624119510       -9.4971195960       39.0872637399  TIP3      2252            0.0000000000
     20224      2398  TIP3      H2             10.9207137074       -8.7518812922       40.4268654089  TIP3      2252            0.0000000000
     20225      2399  TIP3      OH2            17.6077530627        7.0394093298       40.5204297532  TIP3      2253            0.0000000000
     20226      2399  TIP3      H1             18.3276908582        7.6211255599       40.2538540055  TIP3      2253            0.0000000000
     20227      2399  TIP3      H2             17.8540921903        6.2271517528       40.0208576464  TIP3      2253            0.0000000000
     20228      2400  TIP3      OH2            10.7912525953        6.5494528810       39.5604436482  TIP3      2254            0.0000000000
     20229      2400  TIP3      H1             10.2858601821        6.6574532467       40.3850780545  TIP3      2254            0.0000000000
     20230      2400  TIP3      H2             11.2615224416        5.7064539676       39.6724547980  TIP3      2254            0.0000000000
     20231      2401  TIP3      OH2            27.3267101517       -7.1994319319       41.5529455106  TIP3      2255            0.0000000000
     20232      2401  TIP3      H1             27.9067650258       -6.6383098076       41.0046652178  TIP3      2255            0.0000000000
     20233      2401  TIP3      H2             26.6402439550       -6.5279824691       41.7344551233  TIP3      2255            0.0000000000
     20234      2402  TIP3      OH2            28.9081086596       -1.9661186319       39.9119581591  TIP3      2256            0.0000000000
     20235      2402  TIP3      H1             29.2460981448       -1.2998127691       40.5601043838  TIP3      2256            0.0000000000
     20236      2402  TIP3      H2             27.9580385771       -1.7775961251       40.0106924325  TIP3      2256            0.0000000000
     20237      2403  TIP3      OH2            29.8821930424        0.0112318905       41.3128583790  TIP3      2257            0.0000000000
     20238      2403  TIP3      H1             29.5766042298        0.4443600623       42.1162478542  TIP3      2257            0.0000000000
     20239      2403  TIP3      H2             30.3987894661        0.7457905349       40.9040518166  TIP3      2257            0.0000000000
     20240      2404  TIP3      OH2            28.2544012599       -4.9609917649       40.1177010877  TIP3      2258            0.0000000000
     20241      2404  TIP3      H1             28.9497497564       -4.3215857949       40.3436781393  TIP3      2258            0.0000000000
     20242      2404  TIP3      H2             27.4978293585       -4.3992384768       39.8963280226  TIP3      2258            0.0000000000
     20243      2405  TIP3      OH2            27.4290656810        1.6932075388       40.0190373060  TIP3      2259            0.0000000000
     20244      2405  TIP3      H1             28.2429159408        2.0408074809       39.6035432554  TIP3      2259            0.0000000000
     20245      2405  TIP3      H2             27.0192523320        1.2434338745       39.2511412037  TIP3      2259            0.0000000000
     20246      2406  TIP3      OH2            27.7870070437      -10.6728217045       41.8135338137  TIP3      2260            0.0000000000
     20247      2406  TIP3      H1             28.2235446810      -10.0820226175       41.1624888528  TIP3      2260            0.0000000000
     20248      2406  TIP3      H2             27.6588243998      -10.0305672158       42.5243778502  TIP3      2260            0.0000000000
     20249      2407  TIP3      OH2            29.3342556997       -9.1812853713       39.8587177998  TIP3      2261            0.0000000000
     20250      2407  TIP3      H1             30.0122946569       -9.8607306349       40.0118739526  TIP3      2261            0.0000000000
     20251      2407  TIP3      H2             29.8025761096       -8.4527809705       40.3019511742  TIP3      2261            0.0000000000
     20252      2408  TIP3      OH2            29.2582637181        6.2714009402       39.4737483150  TIP3      2262            0.0000000000
     20253      2408  TIP3      H1             28.9327226341        6.9197570644       40.1208200934  TIP3      2262            0.0000000000
     20254      2408  TIP3      H2             30.1342603699        6.0903148005       39.8403953712  TIP3      2262            0.0000000000
     20255      2409  TIP3      OH2           -19.6968742334       15.2852607060       40.1095663211  TIP3      2263            0.0000000000
     20256      2409  TIP3      H1            -19.0169179173       15.6198275275       40.7269107533  TIP3      2263            0.0000000000
     20257      2409  TIP3      H2            -19.1622034934       14.6145622359       39.6452246075  TIP3      2263            0.0000000000
     20258      2410  TIP3      OH2           -17.3998706648       16.3433449619       41.1211401329  TIP3      2264            0.0000000000
     20259      2410  TIP3      H1            -17.7146346947       16.9493832373       41.8055439490  TIP3      2264            0.0000000000
     20260      2410  TIP3      H2            -16.8444881248       16.9176687942       40.5491088015  TIP3      2264            0.0000000000
     20261      2411  TIP3      OH2           -13.5521289557        8.0716431875       41.9811272507  TIP3      2265            0.0000000000
     20262      2411  TIP3      H1            -14.3478666468        7.9382968995       41.4477384338  TIP3      2265            0.0000000000
     20263      2411  TIP3      H2            -13.1730994938        8.8602909173       41.5445408651  TIP3      2265            0.0000000000
     20264      2412  TIP3      OH2           -12.3651026906       22.4387383359       39.6044043597  TIP3      2266            0.0000000000
     20265      2412  TIP3      H1            -12.1876862119       23.3797633643       39.7611296416  TIP3      2266            0.0000000000
     20266      2412  TIP3      H2            -11.7498962658       22.0516043542       40.2544222806  TIP3      2266            0.0000000000
     20267      2413  TIP3      OH2           -16.5111636539       24.9885976218       40.7639312499  TIP3      2267            0.0000000000
     20268      2413  TIP3      H1            -16.2031009512       24.5028295654       39.9779299134  TIP3      2267            0.0000000000
     20269      2413  TIP3      H2            -16.0593702186       24.4813490400       41.4654657143  TIP3      2267            0.0000000000
     20270      2414  TIP3      OH2           -15.7497348445       18.1035906243       39.9476602807  TIP3      2268            0.0000000000
     20271      2414  TIP3      H1            -15.9993419753       18.0261619793       38.9929373080  TIP3      2268            0.0000000000
     20272      2414  TIP3      H2            -14.8064506404       17.8808953559       39.8824083707  TIP3      2268            0.0000000000
     20273      2415  TIP3      OH2           -20.0216191141       10.9747334692       40.6144961065  TIP3      2269            0.0000000000
     20274      2415  TIP3      H1            -20.5298808801       11.7600676940       40.3969500287  TIP3      2269            0.0000000000
     20275      2415  TIP3      H2            -20.3637623068       10.3301060261       39.9608920663  TIP3      2269            0.0000000000
     20276      2416  TIP3      OH2           -23.5208772232       12.5110101987       39.1115403576  TIP3      2270            0.0000000000
     20277      2416  TIP3      H1            -23.6418825990       12.6569636709       40.0633288697  TIP3      2270            0.0000000000
     20278      2416  TIP3      H2            -23.8510706799       11.5872964852       38.9956259966  TIP3      2270            0.0000000000
     20279      2417  TIP3      OH2           -29.1315859901       11.7034861707       41.6040012202  TIP3      2271            0.0000000000
     20280      2417  TIP3      H1            -28.6290910361       12.2635997171       40.9675687335  TIP3      2271            0.0000000000
     20281      2417  TIP3      H2            -29.0869651448       12.2339130130       42.4192979067  TIP3      2271            0.0000000000
     20282      2418  TIP3      OH2           -24.5381074619       15.2164095612       40.7927073340  TIP3      2272            0.0000000000
     20283      2418  TIP3      H1            -25.1318542125       14.9206234827       40.0875826416  TIP3      2272            0.0000000000
     20284      2418  TIP3      H2            -23.6830147426       15.2464359726       40.3023174998  TIP3      2272            0.0000000000
     20285      2419  TIP3      OH2           -17.5115478813       11.9371691293       40.3566174016  TIP3      2273            0.0000000000
     20286      2419  TIP3      H1            -18.3890801051       11.6513658196       40.7012706059  TIP3      2273            0.0000000000
     20287      2419  TIP3      H2            -17.1766005739       12.4942695642       41.1053020697  TIP3      2273            0.0000000000
     20288      2420  TIP3      OH2           -17.0544979341       13.9111577029       42.0804959746  TIP3      2274            0.0000000000
     20289      2420  TIP3      H1            -16.1007815390       14.0625603270       42.1629061829  TIP3      2274            0.0000000000
     20290      2420  TIP3      H2            -17.3105699332       14.6501354387       41.4893904189  TIP3      2274            0.0000000000
     20291      2421  TIP3      OH2           -19.3891263104       20.6838883583       41.8179262011  TIP3      2275            0.0000000000
     20292      2421  TIP3      H1            -19.9894022631       21.4514622421       41.7603754975  TIP3      2275            0.0000000000
     20293      2421  TIP3      H2            -19.9330569780       20.0118292125       42.2502345623  TIP3      2275            0.0000000000
     20294      2422  TIP3      OH2           -11.9809272033       13.9175635728       41.9878697017  TIP3      2276            0.0000000000
     20295      2422  TIP3      H1            -12.6283405744       13.5566353213       41.3558264462  TIP3      2276            0.0000000000
     20296      2422  TIP3      H2            -11.6741444906       14.6933525327       41.4677510969  TIP3      2276            0.0000000000
     20297      2423  TIP3      OH2           -27.9269724059       16.5813866865       40.3498785097  TIP3      2277            0.0000000000
     20298      2423  TIP3      H1            -27.6288846861       17.2494441429       40.9943999285  TIP3      2277            0.0000000000
     20299      2423  TIP3      H2            -28.8744662876       16.7908717485       40.3681000247  TIP3      2277            0.0000000000
     20300      2424  TIP3      OH2           -15.7294805270       21.0466342906       40.3799244685  TIP3      2278            0.0000000000
     20301      2424  TIP3      H1            -15.8567871417       21.1515920356       41.3319354521  TIP3      2278            0.0000000000
     20302      2424  TIP3      H2            -16.4474301458       20.4226046801       40.1558332151  TIP3      2278            0.0000000000
     20303      2425  TIP3      OH2           -12.0746811904       25.2367574996       40.4911433091  TIP3      2279            0.0000000000
     20304      2425  TIP3      H1            -11.6489486461       26.0882093144       40.2751405640  TIP3      2279            0.0000000000
     20305      2425  TIP3      H2            -12.7825600054       25.5264295292       41.0919435535  TIP3      2279            0.0000000000
     20306      2426  TIP3      OH2           -22.1254682902       22.3179791756       38.6335554531  TIP3      2280            0.0000000000
     20307      2426  TIP3      H1            -22.3521377200       21.7721743388       37.8593151403  TIP3      2280            0.0000000000
     20308      2426  TIP3      H2            -22.2697582087       21.6684126537       39.3486745524  TIP3      2280            0.0000000000
     20309      2427  TIP3      OH2           -23.3729404320       21.3610866966       41.2198577393  TIP3      2281            0.0000000000
     20310      2427  TIP3      H1            -23.3090152271       21.1694935902       42.1692608372  TIP3      2281            0.0000000000
     20311      2427  TIP3      H2            -23.6206362982       22.3063331406       41.2606380495  TIP3      2281            0.0000000000
     20312      2428  TIP3      OH2           -27.5371527128       18.7525952295       41.9808241826  TIP3      2282            0.0000000000
     20313      2428  TIP3      H1            -26.6979591600       18.4908192590       42.3904407935  TIP3      2282            0.0000000000
     20314      2428  TIP3      H2            -27.2795802034       19.5673798597       41.5113824674  TIP3      2282            0.0000000000
     20315      2429  TIP3      OH2           -21.0147133904       23.2443853762       41.4847040910  TIP3      2283            0.0000000000
     20316      2429  TIP3      H1            -21.9746897065       23.3926077432       41.5905492765  TIP3      2283            0.0000000000
     20317      2429  TIP3      H2            -20.7655599628       23.9182002681       40.8335728198  TIP3      2283            0.0000000000
     20318      2430  TIP3      OH2           -23.7057842148       23.9045640512       42.0224543046  TIP3      2284            0.0000000000
     20319      2430  TIP3      H1            -23.4244403258       24.6910596557       41.5041896384  TIP3      2284            0.0000000000
     20320      2430  TIP3      H2            -24.0484148687       24.3519464788       42.8122335805  TIP3      2284            0.0000000000
     20321      2431  TIP3      OH2           -25.1136519356       10.6974873594       42.0274679698  TIP3      2285            0.0000000000
     20322      2431  TIP3      H1            -24.5541465153       11.4794110993       41.8494132750  TIP3      2285            0.0000000000
     20323      2431  TIP3      H2            -24.4668701304       10.1364729937       42.4905504250  TIP3      2285            0.0000000000
     20324      2432  TIP3      OH2           -26.5424914352       21.0602310747       40.6588042226  TIP3      2286            0.0000000000
     20325      2432  TIP3      H1            -26.0288750620       21.6240678448       41.2655740531  TIP3      2286            0.0000000000
     20326      2432  TIP3      H2            -25.8124631174       20.7780698695       40.0668965629  TIP3      2286            0.0000000000
     20327      2433  TIP3      OH2           -28.4622999866       13.8255336981       39.9464840725  TIP3      2287            0.0000000000
     20328      2433  TIP3      H1            -28.0391527497       14.6111554273       40.3290805424  TIP3      2287            0.0000000000
     20329      2433  TIP3      H2            -28.8229652567       14.1466152546       39.1062458583  TIP3      2287            0.0000000000
     20330      2434  TIP3      OH2           -19.9762978074       23.9562199223       38.9999930561  TIP3      2288            0.0000000000
     20331      2434  TIP3      H1            -20.6885921574       23.2710100779       38.9235533741  TIP3      2288            0.0000000000
     20332      2434  TIP3      H2            -19.2314175806       23.4901046198       38.5565267904  TIP3      2288            0.0000000000
     20333      2435  TIP3      OH2           -15.6580504417       23.1294987123       38.7421619965  TIP3      2289            0.0000000000
     20334      2435  TIP3      H1            -15.5112731434       22.4132957884       39.4104556456  TIP3      2289            0.0000000000
     20335      2435  TIP3      H2            -14.8017679964       23.1314535674       38.2578750564  TIP3      2289            0.0000000000
     20336      2436  TIP3      OH2           -24.6285553963       19.3838513029       38.8940446257  TIP3      2290            0.0000000000
     20337      2436  TIP3      H1            -24.2244329009       19.1141414581       39.7423943703  TIP3      2290            0.0000000000
     20338      2436  TIP3      H2            -23.8827613087       19.1700084876       38.2849864776  TIP3      2290            0.0000000000
     20339      2437  TIP3      OH2           -18.7688008355       20.6589157692       38.7912256575  TIP3      2291            0.0000000000
     20340      2437  TIP3      H1            -18.9152111128       20.4683144926       39.7324509903  TIP3      2291            0.0000000000
     20341      2437  TIP3      H2            -18.9447383987       19.7670865693       38.3950342023  TIP3      2291            0.0000000000
     20342      2438  TIP3      OH2           -23.5346015133       17.9246747059       40.9382557020  TIP3      2292            0.0000000000
     20343      2438  TIP3      H1            -24.0925895978       17.1775243620       41.2195431296  TIP3      2292            0.0000000000
     20344      2438  TIP3      H2            -22.8286986370       17.4391429342       40.4620290621  TIP3      2292            0.0000000000
     20345      2439  TIP3      OH2           -22.2025345143       15.7567533377       39.4038162467  TIP3      2293            0.0000000000
     20346      2439  TIP3      H1            -22.3931969919       15.7687139542       38.4494002536  TIP3      2293            0.0000000000
     20347      2439  TIP3      H2            -21.2203631697       15.6706199532       39.4220550993  TIP3      2293            0.0000000000
     20348      2440  TIP3      OH2           -13.0009315928       17.7601491987       39.1380125627  TIP3      2294            0.0000000000
     20349      2440  TIP3      H1            -13.1274506416       17.4562800036       38.2092513698  TIP3      2294            0.0000000000
     20350      2440  TIP3      H2            -13.0262811608       18.7394203356       38.9995337701  TIP3      2294            0.0000000000
     20351      2441  TIP3      OH2           -22.3621585947       26.1175746879       41.2312407949  TIP3      2295            0.0000000000
     20352      2441  TIP3      H1            -21.3799703188       26.1124616283       41.1499742811  TIP3      2295            0.0000000000
     20353      2441  TIP3      H2            -22.5729878137       26.8038203836       40.5910337138  TIP3      2295            0.0000000000
     20354      2442  TIP3      OH2           -29.1936186736       20.9866964614       39.7830556525  TIP3      2296            0.0000000000
     20355      2442  TIP3      H1            -28.2965173132       21.2208310762       40.0930220085  TIP3      2296            0.0000000000
     20356      2442  TIP3      H2            -28.9911055542       20.2042467073       39.2398540876  TIP3      2296            0.0000000000
     20357      2443  TIP3      OH2           -11.3799864820       16.5128647653       40.8559753690  TIP3      2297            0.0000000000
     20358      2443  TIP3      H1            -11.8872759321       16.8684256808       40.0887809221  TIP3      2297            0.0000000000
     20359      2443  TIP3      H2            -11.7088039531       17.0982556669       41.5613546143  TIP3      2297            0.0000000000
     20360      2444  TIP3      OH2           -13.7276855447       13.9820833627       39.4068777700  TIP3      2298            0.0000000000
     20361      2444  TIP3      H1            -13.4239711996       14.5566023037       38.6936725194  TIP3      2298            0.0000000000
     20362      2444  TIP3      H2            -13.9156354970       13.1543004128       38.9265545784  TIP3      2298            0.0000000000
     20363      2445  TIP3      OH2           -14.1054570027       11.0896369304       38.9362644901  TIP3      2299            0.0000000000
     20364      2445  TIP3      H1            -13.5011165855       10.6865833504       39.5998724907  TIP3      2299            0.0000000000
     20365      2445  TIP3      H2            -14.8636719597       11.3238099584       39.4943370757  TIP3      2299            0.0000000000
     20366      2446  TIP3      OH2           -12.1701367909        9.9135654854       40.5608970726  TIP3      2300            0.0000000000
     20367      2446  TIP3      H1            -11.8453344035        9.3292343259       39.8214417381  TIP3      2300            0.0000000000
     20368      2446  TIP3      H2            -11.3376506960       10.3186717276       40.8845506739  TIP3      2300            0.0000000000
     20369      2447  TIP3      OH2           -29.0935040357        8.5750964282       41.8193316806  TIP3      2301            0.0000000000
     20370      2447  TIP3      H1            -28.6068427841        8.3858537537       41.0056811682  TIP3      2301            0.0000000000
     20371      2447  TIP3      H2            -28.7879101227        9.4831683808       41.9809929674  TIP3      2301            0.0000000000
     20372      2448  TIP3      OH2           -26.8965683949       10.6446567380       40.0092471731  TIP3      2302            0.0000000000
     20373      2448  TIP3      H1            -26.1795423658       10.2771585455       39.4344332762  TIP3      2302            0.0000000000
     20374      2448  TIP3      H2            -26.3925902074       10.6649657181       40.8493855651  TIP3      2302            0.0000000000
     20375      2449  TIP3      OH2           -19.7854089037       26.1263301573       40.5258273855  TIP3      2303            0.0000000000
     20376      2449  TIP3      H1            -18.8571699958       26.1070524264       40.8015065673  TIP3      2303            0.0000000000
     20377      2449  TIP3      H2            -19.7704868688       25.3841478526       39.8817700340  TIP3      2303            0.0000000000
     20378      2450  TIP3      OH2           -27.3602623989       25.2694536808       39.6718103988  TIP3      2304            0.0000000000
     20379      2450  TIP3      H1            -27.4610945651       25.5364523090       40.6019404158  TIP3      2304            0.0000000000
     20380      2450  TIP3      H2            -26.6157845620       24.6556306828       39.7601909311  TIP3      2304            0.0000000000
     20381      2451  TIP3      OH2            -0.7876705252       15.7829262140       40.0728339393  TIP3      2305            0.0000000000
     20382      2451  TIP3      H1              0.0145461127       15.9943584746       40.6046312269  TIP3      2305            0.0000000000
     20383      2451  TIP3      H2             -0.4498071959       14.9768673700       39.6438343863  TIP3      2305            0.0000000000
     20384      2452  TIP3      OH2             1.5081870890       16.4579328659       41.1772660332  TIP3      2306            0.0000000000
     20385      2452  TIP3      H1              1.1271427961       17.0309571865       41.8600240744  TIP3      2306            0.0000000000
     20386      2452  TIP3      H2              2.0093872577       17.0933432638       40.6093171941  TIP3      2306            0.0000000000
     20387      2453  TIP3      OH2             5.2619625312        8.0420206367       42.0141986573  TIP3      2307            0.0000000000
     20388      2453  TIP3      H1              4.5049212960        7.7657942607       41.4885661370  TIP3      2307            0.0000000000
     20389      2453  TIP3      H2              5.5121638145        8.8817693128       41.5638115949  TIP3      2307            0.0000000000
     20390      2454  TIP3      OH2             6.8986555892       22.6222050600       39.2372024573  TIP3      2308            0.0000000000
     20391      2454  TIP3      H1              6.7848196938       23.5118393159       39.6258538662  TIP3      2308            0.0000000000
     20392      2454  TIP3      H2              7.3609553028       22.2033336310       39.9864167874  TIP3      2308            0.0000000000
     20393      2455  TIP3      OH2             1.2943229270       24.0354337662       40.8655403060  TIP3      2309            0.0000000000
     20394      2455  TIP3      H1              1.8427897052       23.6454627801       40.1626685770  TIP3      2309            0.0000000000
     20395      2455  TIP3      H2              1.9602165734       24.5958427836       41.2986432458  TIP3      2309            0.0000000000
     20396      2456  TIP3      OH2             3.0580012709       18.0997764157       39.9192990497  TIP3      2310            0.0000000000
     20397      2456  TIP3      H1              2.7666473978       17.9991363671       38.9822269041  TIP3      2310            0.0000000000
     20398      2456  TIP3      H2              3.9958155430       17.8587277822       39.7928294598  TIP3      2310            0.0000000000
     20399      2457  TIP3      OH2            -1.2368284858       11.0100147270       40.6427001412  TIP3      2311            0.0000000000
     20400      2457  TIP3      H1             -2.0849117430       11.4642712042       40.6713911615  TIP3      2311            0.0000000000
     20401      2457  TIP3      H2             -1.3400199486       10.3937920071       39.9072272985  TIP3      2311            0.0000000000
     20402      2458  TIP3      OH2            -4.9327477242       11.8195438628       39.2050038979  TIP3      2312            0.0000000000
     20403      2458  TIP3      H1             -5.4120523292       11.4290835592       39.9769047338  TIP3      2312            0.0000000000
     20404      2458  TIP3      H2             -5.6067515224       12.4411265468       38.8643007044  TIP3      2312            0.0000000000
     20405      2459  TIP3      OH2           -10.4308948180       11.6661729873       41.6125345420  TIP3      2313            0.0000000000
     20406      2459  TIP3      H1             -9.8123316138       12.1549916658       41.0324738825  TIP3      2313            0.0000000000
     20407      2459  TIP3      H2            -11.0414850179       12.3952154687       41.8173860009  TIP3      2313            0.0000000000
     20408      2460  TIP3      OH2            -5.8677414030       14.4458074696       40.5449974794  TIP3      2314            0.0000000000
     20409      2460  TIP3      H1             -6.2415479492       14.0934442680       39.7124992240  TIP3      2314            0.0000000000
     20410      2460  TIP3      H2             -5.1438280706       14.9771850959       40.1808676705  TIP3      2314            0.0000000000
     20411      2461  TIP3      OH2             1.2801318256       11.9728952406       40.3089360690  TIP3      2315            0.0000000000
     20412      2461  TIP3      H1              0.3641374242       11.8242579407       40.6353208540  TIP3      2315            0.0000000000
     20413      2461  TIP3      H2              1.6459952579       12.5349892757       41.0208314112  TIP3      2315            0.0000000000
     20414      2462  TIP3      OH2             1.9112918460       13.9471876881       42.1210773533  TIP3      2316            0.0000000000
     20415      2462  TIP3      H1              2.8645186074       13.9669405094       42.3051487896  TIP3      2316            0.0000000000
     20416      2462  TIP3      H2              1.7930103445       14.7217365355       41.5384873718  TIP3      2316            0.0000000000
     20417      2463  TIP3      OH2            -0.4726644103       20.3838265077       41.6884761965  TIP3      2317            0.0000000000
     20418      2463  TIP3      H1             -0.9558067767       21.2276366716       41.6580359284  TIP3      2317            0.0000000000
     20419      2463  TIP3      H2             -1.1606694509       19.7667497258       41.9729925076  TIP3      2317            0.0000000000
     20420      2464  TIP3      OH2             6.7624104333       13.9009791023       42.0732365560  TIP3      2318            0.0000000000
     20421      2464  TIP3      H1              6.0891535538       13.5492884017       41.4643718316  TIP3      2318            0.0000000000
     20422      2464  TIP3      H2              7.0464997416       14.6820447891       41.5476171232  TIP3      2318            0.0000000000
     20423      2465  TIP3      OH2            -8.5058313388       16.9763331025       40.0144927049  TIP3      2319            0.0000000000
     20424      2465  TIP3      H1             -8.2295220375       17.5879252596       40.7322758693  TIP3      2319            0.0000000000
     20425      2465  TIP3      H2             -9.4032257986       16.7484246630       40.3172863961  TIP3      2319            0.0000000000
     20426      2466  TIP3      OH2             3.4350713713       20.8989443170       40.5996281677  TIP3      2320            0.0000000000
     20427      2466  TIP3      H1              3.1230640691       21.1837508982       41.4729742606  TIP3      2320            0.0000000000
     20428      2466  TIP3      H2              2.7370843361       20.2642978596       40.3481154356  TIP3      2320            0.0000000000
     20429      2467  TIP3      OH2             7.0586127762       25.1470805392       40.6044389542  TIP3      2321            0.0000000000
     20430      2467  TIP3      H1              7.2209416736       25.9321145319       40.0408768669  TIP3      2321            0.0000000000
     20431      2467  TIP3      H2              6.4789570841       25.5328251174       41.2892008728  TIP3      2321            0.0000000000
     20432      2468  TIP3      OH2            -3.2617580009       22.0877898004       38.5093637836  TIP3      2322            0.0000000000
     20433      2468  TIP3      H1             -3.6910261922       21.4231057565       37.9437504071  TIP3      2322            0.0000000000
     20434      2468  TIP3      H2             -3.5376705191       21.7607868051       39.3833165214  TIP3      2322            0.0000000000
     20435      2469  TIP3      OH2            -4.5570883558       21.1926510340       41.2879286429  TIP3      2323            0.0000000000
     20436      2469  TIP3      H1             -3.7382533903       21.5760559896       41.6446385514  TIP3      2323            0.0000000000
     20437      2469  TIP3      H2             -5.1758212558       21.9159371112       41.4621095765  TIP3      2323            0.0000000000
     20438      2470  TIP3      OH2            -8.3345718220       18.6705003466       42.1115407438  TIP3      2324            0.0000000000
     20439      2470  TIP3      H1             -8.8308866098       18.0433688685       42.6764333788  TIP3      2324            0.0000000000
     20440      2470  TIP3      H2             -7.4486390619       18.6301543912       42.5187242849  TIP3      2324            0.0000000000
     20441      2471  TIP3      OH2            -2.1756806780       22.8361497381       41.5409089764  TIP3      2325            0.0000000000
     20442      2471  TIP3      H1             -2.9765184383       23.3940666470       41.6718482854  TIP3      2325            0.0000000000
     20443      2471  TIP3      H2             -1.6729835153       23.3823894958       40.9072658349  TIP3      2325            0.0000000000
     20444      2472  TIP3      OH2            -4.5570580647       24.1347696511       42.1470897793  TIP3      2326            0.0000000000
     20445      2472  TIP3      H1             -5.1496980162       24.8269225084       41.7946855702  TIP3      2326            0.0000000000
     20446      2472  TIP3      H2             -4.1938929728       24.5569137679       42.9471410784  TIP3      2326            0.0000000000
     20447      2473  TIP3      OH2            -5.8794121199       10.4402829871       41.3280171118  TIP3      2327            0.0000000000
     20448      2473  TIP3      H1             -5.5446215232       11.0632188815       42.0178804764  TIP3      2327            0.0000000000
     20449      2473  TIP3      H2             -5.2276339564        9.7213083393       41.3851279607  TIP3      2327            0.0000000000
     20450      2474  TIP3      OH2            -7.7360908350       21.1030455879       40.1113769332  TIP3      2328            0.0000000000
     20451      2474  TIP3      H1             -7.0907483223       21.5639422983       40.6574693834  TIP3      2328            0.0000000000
     20452      2474  TIP3      H2             -7.1508179106       20.4048867020       39.7683629778  TIP3      2328            0.0000000000
     20453      2475  TIP3      OH2            -9.2363448891       13.9282863459       39.9498284734  TIP3      2329            0.0000000000
     20454      2475  TIP3      H1             -8.5626833817       14.5385993629       40.2959223096  TIP3      2329            0.0000000000
     20455      2475  TIP3      H2             -9.5456326473       14.4117232235       39.1664937710  TIP3      2329            0.0000000000
     20456      2476  TIP3      OH2            -1.0974917985       23.7477957616       38.9883830860  TIP3      2330            0.0000000000
     20457      2476  TIP3      H1             -1.6457187440       22.9481920780       38.8214402994  TIP3      2330            0.0000000000
     20458      2476  TIP3      H2             -0.2373630951       23.4518606400       38.6120919392  TIP3      2330            0.0000000000
     20459      2477  TIP3      OH2             3.2098359467       23.0772951458       38.8545951494  TIP3      2331            0.0000000000
     20460      2477  TIP3      H1              3.6056711496       22.5965447228       39.6106612193  TIP3      2331            0.0000000000
     20461      2477  TIP3      H2              4.0080231932       23.2328132889       38.3060174888  TIP3      2331            0.0000000000
     20462      2478  TIP3      OH2            -5.6013181094       19.1823554866       38.9309351084  TIP3      2332            0.0000000000
     20463      2478  TIP3      H1             -5.1459982133       18.9589741519       39.7631025648  TIP3      2332            0.0000000000
     20464      2478  TIP3      H2             -4.9321600796       18.9132630652       38.2625183566  TIP3      2332            0.0000000000
     20465      2479  TIP3      OH2             0.2589368455       20.4607838700       38.9170698140  TIP3      2333            0.0000000000
     20466      2479  TIP3      H1              0.0936897779       20.4173285190       39.8758948561  TIP3      2333            0.0000000000
     20467      2479  TIP3      H2              0.0110136113       19.5440232287       38.6549743168  TIP3      2333            0.0000000000
     20468      2480  TIP3      OH2            -4.5243730766       17.4451680821       41.1357264647  TIP3      2334            0.0000000000
     20469      2480  TIP3      H1             -5.1079327825       16.9039070202       41.6802485013  TIP3      2334            0.0000000000
     20470      2480  TIP3      H2             -4.1927829299       16.8043555040       40.4707361065  TIP3      2334            0.0000000000
     20471      2481  TIP3      OH2            -3.3950219232       15.6437218921       39.4598979763  TIP3      2335            0.0000000000
     20472      2481  TIP3      H1             -3.4431973398       15.8111700141       38.4941708319  TIP3      2335            0.0000000000
     20473      2481  TIP3      H2             -2.4301560150       15.7714010400       39.6240167489  TIP3      2335            0.0000000000
     20474      2482  TIP3      OH2             5.8878763612       17.6445950241       39.2113110585  TIP3      2336            0.0000000000
     20475      2482  TIP3      H1              5.7914685571       17.3940852707       38.2566808017  TIP3      2336            0.0000000000
     20476      2482  TIP3      H2              5.9203024449       18.6351753772       39.1362830453  TIP3      2336            0.0000000000
     20477      2483  TIP3      OH2            -4.5220310577       26.8995749753       40.8850770509  TIP3      2337            0.0000000000
     20478      2483  TIP3      H1             -3.6369866519       26.5212120250       41.0169728726  TIP3      2337            0.0000000000
     20479      2483  TIP3      H2             -4.4211489106       27.3919380625       40.0422606870  TIP3      2337            0.0000000000
     20480      2484  TIP3      OH2           -10.3913008447       20.7579876778       40.4704835363  TIP3      2338            0.0000000000
     20481      2484  TIP3      H1             -9.4015146228       20.7437741177       40.4114867196  TIP3      2338            0.0000000000
     20482      2484  TIP3      H2            -10.5870648964       20.3000056278       39.6380971356  TIP3      2338            0.0000000000
     20483      2485  TIP3      OH2             7.4681063763       16.3776726067       41.0234602537  TIP3      2339            0.0000000000
     20484      2485  TIP3      H1              7.0128792911       16.7774462002       40.2443296556  TIP3      2339            0.0000000000
     20485      2485  TIP3      H2              7.3161474629       17.0700121302       41.6938531393  TIP3      2339            0.0000000000
     20486      2486  TIP3      OH2             5.1448521411       14.1448244508       39.4000405813  TIP3      2340            0.0000000000
     20487      2486  TIP3      H1              5.6982523802       14.7675692747       38.9036770949  TIP3      2340            0.0000000000
     20488      2486  TIP3      H2              4.9330567370       13.4714118536       38.7219489414  TIP3      2340            0.0000000000
     20489      2487  TIP3      OH2             4.5473641222       11.2780208397       38.9939448383  TIP3      2341            0.0000000000
     20490      2487  TIP3      H1              5.1667312473       10.8098716928       39.5896407131  TIP3      2341            0.0000000000
     20491      2487  TIP3      H2              3.8234019400       11.4613890330       39.6165899276  TIP3      2341            0.0000000000
     20492      2488  TIP3      OH2             6.6582537771        9.9060064416       40.5491952567  TIP3      2342            0.0000000000
     20493      2488  TIP3      H1              6.9478125744        9.2888103040       39.8303235466  TIP3      2342            0.0000000000
     20494      2488  TIP3      H2              7.5082739880       10.2530719348       40.8804826102  TIP3      2342            0.0000000000
     20495      2489  TIP3      OH2            -9.5079242932        8.4807779226       41.4824930291  TIP3      2343            0.0000000000
     20496      2489  TIP3      H1             -9.3283409356        9.1728692614       40.8128178696  TIP3      2343            0.0000000000
     20497      2489  TIP3      H2             -9.4188178879        9.0152022215       42.2967194336  TIP3      2343            0.0000000000
     20498      2490  TIP3      OH2            -8.2271342547       10.3236009379       39.8742609679  TIP3      2344            0.0000000000
     20499      2490  TIP3      H1             -7.6753767058        9.7173180896       39.3397196280  TIP3      2344            0.0000000000
     20500      2490  TIP3      H2             -7.6423930443       10.4789013153       40.6515218995  TIP3      2344            0.0000000000
     20501      2491  TIP3      OH2            -1.7196177686       25.6861073895       40.7947526660  TIP3      2345            0.0000000000
     20502      2491  TIP3      H1             -0.7840362331       25.8885642151       40.9084240312  TIP3      2345            0.0000000000
     20503      2491  TIP3      H2             -1.6197140073       25.1042104914       40.0127303012  TIP3      2345            0.0000000000
     20504      2492  TIP3      OH2            -8.7642008171       25.5520582097       39.3040448679  TIP3      2346            0.0000000000
     20505      2492  TIP3      H1             -9.1939618143       26.1564594807       39.9510357987  TIP3      2346            0.0000000000
     20506      2492  TIP3      H2             -8.2593285505       24.9968921788       39.9150422099  TIP3      2346            0.0000000000
     20507      2493  TIP3      OH2            18.1819749207       15.6764867181       39.4046950432  TIP3      2347            0.0000000000
     20508      2493  TIP3      H1             18.5768528835       15.8477959140       40.2892046529  TIP3      2347            0.0000000000
     20509      2493  TIP3      H2             18.7435509400       14.9068860566       39.1689929025  TIP3      2347            0.0000000000
     20510      2494  TIP3      OH2            20.1324814165       16.3966628210       41.1629656536  TIP3      2348            0.0000000000
     20511      2494  TIP3      H1             19.6948389911       17.0962586815       41.6670672214  TIP3      2348            0.0000000000
     20512      2494  TIP3      H2             20.6633998262       16.9239971923       40.5100183814  TIP3      2348            0.0000000000
     20513      2495  TIP3      OH2            23.8964270512        8.3940265224       42.2486430835  TIP3      2349            0.0000000000
     20514      2495  TIP3      H1             23.2195203496        8.0005556872       41.6852293712  TIP3      2349            0.0000000000
     20515      2495  TIP3      H2             24.1959370240        9.1601768907       41.7011324519  TIP3      2349            0.0000000000
     20516      2496  TIP3      OH2            25.2363025539       22.5776624617       39.7092593822  TIP3      2350            0.0000000000
     20517      2496  TIP3      H1             25.4127636458       23.4767308275       40.0411813651  TIP3      2350            0.0000000000
     20518      2496  TIP3      H2             26.1325734528       22.1937750260       39.8130883518  TIP3      2350            0.0000000000
     20519      2497  TIP3      OH2            21.0678224041       25.0324648935       40.7435633937  TIP3      2351            0.0000000000
     20520      2497  TIP3      H1             21.3286283173       24.4494124607       40.0004545820  TIP3      2351            0.0000000000
     20521      2497  TIP3      H2             21.6261656937       24.6419587776       41.4409114090  TIP3      2351            0.0000000000
     20522      2498  TIP3      OH2            21.7928775024       17.9204417422       39.9123986392  TIP3      2352            0.0000000000
     20523      2498  TIP3      H1             21.6457333899       17.9534606240       38.9433803643  TIP3      2352            0.0000000000
     20524      2498  TIP3      H2             22.7665162819       17.8917088034       39.8998003039  TIP3      2352            0.0000000000
     20525      2499  TIP3      OH2            17.4349690840       10.7680595278       40.2491544261  TIP3      2353            0.0000000000
     20526      2499  TIP3      H1             16.6152788058       11.2611001666       40.3165576155  TIP3      2353            0.0000000000
     20527      2499  TIP3      H2             17.1770357168       10.0429395529       39.6703158484  TIP3      2353            0.0000000000
     20528      2500  TIP3      OH2            13.9678724741       11.5985551567       39.1118594591  TIP3      2354            0.0000000000
     20529      2500  TIP3      H1             13.4137435429       11.2926069394       39.8710326580  TIP3      2354            0.0000000000
     20530      2500  TIP3      H2             13.4375697621       12.3428379656       38.7641227249  TIP3      2354            0.0000000000
     20531      2501  TIP3      OH2             8.5068583304       11.6067288966       41.6577928953  TIP3      2355            0.0000000000
     20532      2501  TIP3      H1              8.9995145915       12.0979458676       40.9722565360  TIP3      2355            0.0000000000
     20533      2501  TIP3      H2              7.9004631172       12.3263992121       41.9098291592  TIP3      2355            0.0000000000
     20534      2502  TIP3      OH2            13.0641666515       14.3734314426       40.4916732744  TIP3      2356            0.0000000000
     20535      2502  TIP3      H1             12.7362448944       14.0856455870       39.6160366634  TIP3      2356            0.0000000000
     20536      2502  TIP3      H2             13.7920175588       14.9555977709       40.2207063256  TIP3      2356            0.0000000000
     20537      2503  TIP3      OH2            19.7370946510       12.1793036812       40.9266502992  TIP3      2357            0.0000000000
     20538      2503  TIP3      H1             18.8878927725       11.9376629996       41.3383405476  TIP3      2357            0.0000000000
     20539      2503  TIP3      H2             20.0346560273       12.9362748839       41.4879714290  TIP3      2357            0.0000000000
     20540      2504  TIP3      OH2            20.9845875770       14.0939802167       42.1690045195  TIP3      2358            0.0000000000
     20541      2504  TIP3      H1             21.9325025111       13.9054411232       42.0723483214  TIP3      2358            0.0000000000
     20542      2504  TIP3      H2             20.8407775057       14.8651101857       41.5795498242  TIP3      2358            0.0000000000
     20543      2505  TIP3      OH2            18.3325079842       20.7812392461       41.6737977954  TIP3      2359            0.0000000000
     20544      2505  TIP3      H1             17.7169681895       21.5354560287       41.7112644560  TIP3      2359            0.0000000000
     20545      2505  TIP3      H2             17.7451044509       20.0752946882       42.0436187138  TIP3      2359            0.0000000000
     20546      2506  TIP3      OH2            25.6004900956       14.0858758250       42.0571434462  TIP3      2360            0.0000000000
     20547      2506  TIP3      H1             25.0674885143       13.6656604712       41.3600690149  TIP3      2360            0.0000000000
     20548      2506  TIP3      H2             25.7471086193       14.9613523772       41.6520184484  TIP3      2360            0.0000000000
     20549      2507  TIP3      OH2            10.4617440386       16.8663567189       40.0623013155  TIP3      2361            0.0000000000
     20550      2507  TIP3      H1             10.7468433493       17.5059533456       40.7432464864  TIP3      2361            0.0000000000
     20551      2507  TIP3      H2              9.5826045331       16.6164655114       40.4007702429  TIP3      2361            0.0000000000
     20552      2508  TIP3      OH2            21.7054713949       20.7325956616       40.5555985500  TIP3      2362            0.0000000000
     20553      2508  TIP3      H1             21.4202643690       20.8317875766       41.4778269364  TIP3      2362            0.0000000000
     20554      2508  TIP3      H2             20.8636645741       20.4366216971       40.1611742883  TIP3      2362            0.0000000000
     20555      2509  TIP3      OH2            25.5925547776       25.2629170244       40.6121375785  TIP3      2363            0.0000000000
     20556      2509  TIP3      H1             26.3115313644       25.8624434953       40.8492859062  TIP3      2363            0.0000000000
     20557      2509  TIP3      H2             24.8295687455       25.6886659046       41.0427929731  TIP3      2363            0.0000000000
     20558      2510  TIP3      OH2            15.6288981930       22.1750598954       38.6915115997  TIP3      2364            0.0000000000
     20559      2510  TIP3      H1             15.3406535614       21.5171668721       38.0423232356  TIP3      2364            0.0000000000
     20560      2510  TIP3      H2             15.1027064268       21.8876413673       39.4710802888  TIP3      2364            0.0000000000
     20561      2511  TIP3      OH2            14.3586805243       21.2718440991       41.2620703538  TIP3      2365            0.0000000000
     20562      2511  TIP3      H1             15.0469362832       20.6960056044       41.6499954090  TIP3      2365            0.0000000000
     20563      2511  TIP3      H2             14.4222882796       22.0385205431       41.8437176196  TIP3      2365            0.0000000000
     20564      2512  TIP3      OH2            10.4642247862       18.6293606915       42.1514045242  TIP3      2366            0.0000000000
     20565      2512  TIP3      H1             10.0671015599       17.9578162300       42.7457399131  TIP3      2366            0.0000000000
     20566      2512  TIP3      H2             11.4076753308       18.5740614796       42.4023151575  TIP3      2366            0.0000000000
     20567      2513  TIP3      OH2            16.6076102904       23.2172282223       41.5050890122  TIP3      2367            0.0000000000
     20568      2513  TIP3      H1             15.7157596983       23.6194673801       41.5998650819  TIP3      2367            0.0000000000
     20569      2513  TIP3      H2             16.9731423423       23.7321161078       40.7553318797  TIP3      2367            0.0000000000
     20570      2514  TIP3      OH2            14.2767331177       24.5235050544       42.1367419738  TIP3      2368            0.0000000000
     20571      2514  TIP3      H1             14.4265425503       25.2251675269       41.4601576692  TIP3      2368            0.0000000000
     20572      2514  TIP3      H2             13.4036416452       24.7708301062       42.4721343103  TIP3      2368            0.0000000000
     20573      2515  TIP3      OH2            12.7470618494       10.5005688893       41.1848331736  TIP3      2369            0.0000000000
     20574      2515  TIP3      H1             13.1353016522       11.0891103742       41.8751184203  TIP3      2369            0.0000000000
     20575      2515  TIP3      H2             13.3592452316        9.7513264891       41.1961138501  TIP3      2369            0.0000000000
     20576      2516  TIP3      OH2            11.1792500539       21.0415597212       40.3649619926  TIP3      2370            0.0000000000
     20577      2516  TIP3      H1             11.4824080330       21.5121409474       41.1528543102  TIP3      2370            0.0000000000
     20578      2516  TIP3      H2             11.9735844074       20.5424200494       40.1012486396  TIP3      2370            0.0000000000
     20579      2517  TIP3      OH2             9.3886008038       13.8720263478       40.0494437895  TIP3      2371            0.0000000000
     20580      2517  TIP3      H1             10.1199652512       14.3382664078       40.4764780230  TIP3      2371            0.0000000000
     20581      2517  TIP3      H2              9.2681881483       14.4221049801       39.2571047289  TIP3      2371            0.0000000000
     20582      2518  TIP3      OH2            17.7348853799       23.7730501872       39.0816821047  TIP3      2372            0.0000000000
     20583      2518  TIP3      H1             17.0631504953       23.0546711728       38.9465506320  TIP3      2372            0.0000000000
     20584      2518  TIP3      H2             18.4637209169       23.4264628383       38.5169242578  TIP3      2372            0.0000000000
     20585      2519  TIP3      OH2            22.0032030309       23.1755242849       38.8333053582  TIP3      2373            0.0000000000
     20586      2519  TIP3      H1             22.3163826021       22.5442926375       39.5149811439  TIP3      2373            0.0000000000
     20587      2519  TIP3      H2             22.7399677126       23.1240991324       38.1817443758  TIP3      2373            0.0000000000
     20588      2520  TIP3      OH2            13.2298350061       19.3213055396       38.8800030277  TIP3      2374            0.0000000000
     20589      2520  TIP3      H1             13.5413960994       18.8962537528       39.7018398277  TIP3      2374            0.0000000000
     20590      2520  TIP3      H2             13.8969800369       18.9894511964       38.2380541200  TIP3      2374            0.0000000000
     20591      2521  TIP3      OH2            19.0524441341       20.5361416749       38.8579220083  TIP3      2375            0.0000000000
     20592      2521  TIP3      H1             18.7512463582       20.5076928079       39.7877304542  TIP3      2375            0.0000000000
     20593      2521  TIP3      H2             18.7852465909       19.6289133701       38.5575271641  TIP3      2375            0.0000000000
     20594      2522  TIP3      OH2            14.0313545075       17.3576892426       40.7843662136  TIP3      2376            0.0000000000
     20595      2522  TIP3      H1             14.0780735339       17.0043870461       41.6810449110  TIP3      2376            0.0000000000
     20596      2522  TIP3      H2             14.7387818498       16.8662418721       40.3265766497  TIP3      2376            0.0000000000
     20597      2523  TIP3      OH2            15.5430367198       15.7420773914       39.2462550427  TIP3      2377            0.0000000000
     20598      2523  TIP3      H1             15.3443513395       15.8992744396       38.3100801517  TIP3      2377            0.0000000000
     20599      2523  TIP3      H2             16.5245948938       15.8130323864       39.2182667993  TIP3      2377            0.0000000000
     20600      2524  TIP3      OH2            24.5879584136       17.7661103351       39.0747744847  TIP3      2378            0.0000000000
     20601      2524  TIP3      H1             24.6255749570       17.3947666291       38.1656549120  TIP3      2378            0.0000000000
     20602      2524  TIP3      H2             24.5881880204       18.7310625662       38.8713940117  TIP3      2378            0.0000000000
     20603      2525  TIP3      OH2            15.1746804945       26.5588904887       40.6258796269  TIP3      2379            0.0000000000
     20604      2525  TIP3      H1             16.1521470814       26.4864198091       40.5210621515  TIP3      2379            0.0000000000
     20605      2525  TIP3      H2             14.9775386332       27.3106562271       40.0320241392  TIP3      2379            0.0000000000
     20606      2526  TIP3      OH2             8.4225343300       20.6819641429       40.6119563121  TIP3      2380            0.0000000000
     20607      2526  TIP3      H1              9.3995090138       20.6374010743       40.5187888088  TIP3      2380            0.0000000000
     20608      2526  TIP3      H2              8.1793821180       20.2455007254       39.7841572604  TIP3      2380            0.0000000000
     20609      2527  TIP3      OH2            26.2161037269       16.7843500140       40.9837677783  TIP3      2381            0.0000000000
     20610      2527  TIP3      H1             25.5804728754       16.8660794200       40.2277681038  TIP3      2381            0.0000000000
     20611      2527  TIP3      H2             25.7333609209       17.2864522993       41.6603932813  TIP3      2381            0.0000000000
     20612      2528  TIP3      OH2            23.8986371453       14.2743634179       39.6253328377  TIP3      2382            0.0000000000
     20613      2528  TIP3      H1             24.2622759625       14.4489552258       38.7452704033  TIP3      2382            0.0000000000
     20614      2528  TIP3      H2             23.6063602327       13.3376366686       39.5064467704  TIP3      2382            0.0000000000
     20615      2529  TIP3      OH2            23.4378085642       11.7126390272       39.3895875234  TIP3      2383            0.0000000000
     20616      2529  TIP3      H1             24.0157061737       11.1023453004       39.8963206660  TIP3      2383            0.0000000000
     20617      2529  TIP3      H2             22.5980332668       11.2398979382       39.3500671266  TIP3      2383            0.0000000000
     20618      2530  TIP3      OH2            25.3637839639       10.0981642646       40.7978417056  TIP3      2384            0.0000000000
     20619      2530  TIP3      H1             25.8552229418        9.7440749198       40.0113544460  TIP3      2384            0.0000000000
     20620      2530  TIP3      H2             26.0791035884       10.6486793568       41.1795928615  TIP3      2384            0.0000000000
     20621      2531  TIP3      OH2             9.1514288100        8.4222377093       41.4992020051  TIP3      2385            0.0000000000
     20622      2531  TIP3      H1              9.2295916651        9.0354338377       40.7390404895  TIP3      2385            0.0000000000
     20623      2531  TIP3      H2              9.2572406321        9.0452327538       42.2410466826  TIP3      2385            0.0000000000
     20624      2532  TIP3      OH2            10.3873112355       10.1110485197       39.6915641535  TIP3      2386            0.0000000000
     20625      2532  TIP3      H1             10.9893113092        9.6569726632       39.0652821155  TIP3      2386            0.0000000000
     20626      2532  TIP3      H2             10.9683224140       10.2457804160       40.4730979107  TIP3      2386            0.0000000000
     20627      2533  TIP3      OH2            17.8008672520       26.1460098256       40.3876550298  TIP3      2387            0.0000000000
     20628      2533  TIP3      H1             18.6810892923       26.1281437913       40.7851284939  TIP3      2387            0.0000000000
     20629      2533  TIP3      H2             17.8799591642       25.3746372985       39.7937493719  TIP3      2387            0.0000000000
     20630      2534  TIP3      OH2            10.7033009843       25.3048532767       39.4184255176  TIP3      2388            0.0000000000
     20631      2534  TIP3      H1             10.3161953185       25.5137255317       40.2837883455  TIP3      2388            0.0000000000
     20632      2534  TIP3      H2             11.3067037461       24.5649862742       39.6146761349  TIP3      2388            0.0000000000
     20633      2535  TIP3      OH2            27.3699803935       11.6871647473       41.6003357621  TIP3      2389            0.0000000000
     20634      2535  TIP3      H1             27.9373503240       12.1827445280       40.9863424009  TIP3      2389            0.0000000000
     20635      2535  TIP3      H2             26.8889345389       12.4285816156       42.0073745927  TIP3      2389            0.0000000000
     20636      2536  TIP3      OH2            29.1601025832       17.1600891069       40.0237683073  TIP3      2390            0.0000000000
     20637      2536  TIP3      H1             29.3719809673       17.8082876561       40.7453601541  TIP3      2390            0.0000000000
     20638      2536  TIP3      H2             28.1877490990       17.1537995922       40.1324247420  TIP3      2390            0.0000000000
     20639      2537  TIP3      OH2            29.8527679321       19.2951406296       41.4724945455  TIP3      2391            0.0000000000
     20640      2537  TIP3      H1             29.8882147643       19.6889633692       42.3527456498  TIP3      2391            0.0000000000
     20641      2537  TIP3      H2             30.4799094760       19.8648282837       40.9679968660  TIP3      2391            0.0000000000
     20642      2538  TIP3      OH2            28.2816853585       14.2873420484       40.2632597716  TIP3      2392            0.0000000000
     20643      2538  TIP3      H1             28.7397461424       14.9682919036       40.7891216070  TIP3      2392            0.0000000000
     20644      2538  TIP3      H2             27.4422861814       14.6974163893       40.0073760880  TIP3      2392            0.0000000000
     20645      2539  TIP3      OH2            27.5642132341       21.1134161863       39.7680643074  TIP3      2393            0.0000000000
     20646      2539  TIP3      H1             28.3768816800       20.8174745647       40.2036753045  TIP3      2393            0.0000000000
     20647      2539  TIP3      H2             27.3873916266       20.3893646702       39.1290286187  TIP3      2393            0.0000000000
     20648      2540  TIP3      OH2            27.9650960170        8.4515740665       41.5945454188  TIP3      2394            0.0000000000
     20649      2540  TIP3      H1             28.3922410594        9.0848580357       40.9848652562  TIP3      2394            0.0000000000
     20650      2540  TIP3      H2             27.1307712850        8.9124479028       41.7235470578  TIP3      2394            0.0000000000
     20651      2541  TIP3      OH2            29.5541644433       10.1585401332       39.8240259879  TIP3      2395            0.0000000000
     20652      2541  TIP3      H1             30.1252906973        9.3816636029       39.8069693492  TIP3      2395            0.0000000000
     20653      2541  TIP3      H2             29.9652923544       10.6787774191       40.5468670573  TIP3      2395            0.0000000000
     20654      2542  TIP3      OH2            28.8961527062       25.5055449677       39.3010927275  TIP3      2396            0.0000000000
     20655      2542  TIP3      H1             28.9463995064       25.7582651364       40.2397289133  TIP3      2396            0.0000000000
     20656      2542  TIP3      H2             29.7676626547       25.1204354487       39.1466766732  TIP3      2396            0.0000000000
     20657      2543  TIP3      OH2           -13.8397160674       26.9988558633       42.1571778077  TIP3      2397            0.0000000000
     20658      2543  TIP3      H1            -14.7375558082       26.9668861089       41.7918155350  TIP3      2397            0.0000000000
     20659      2543  TIP3      H2            -13.3268120591       27.5569160450       41.5254172939  TIP3      2397            0.0000000000
     20660      2544  TIP3      OH2           -20.6499363531       29.5994908008       39.9959191291  TIP3      2398            0.0000000000
     20661      2544  TIP3      H1            -20.8979197885       30.5379683007       39.9707672411  TIP3      2398            0.0000000000
     20662      2544  TIP3      H2            -21.3737960963       29.1823336206       39.4972961028  TIP3      2398            0.0000000000
     20663      2545  TIP3      OH2           -24.7221614241       29.7502633971       41.5084676315  TIP3      2399            0.0000000000
     20664      2545  TIP3      H1            -24.2962278542       30.4423145182       42.0303579368  TIP3      2399            0.0000000000
     20665      2545  TIP3      H2            -23.9811292991       29.1685249540       41.2945431219  TIP3      2399            0.0000000000
     20666      2546  TIP3      OH2           -12.3350237387       28.5202033635       40.5909850107  TIP3      2400            0.0000000000
     20667      2546  TIP3      H1            -11.9097489823       28.1394994522       39.7822257379  TIP3      2400            0.0000000000
     20668      2546  TIP3      H2            -11.7118258799       29.2337407734       40.8157866988  TIP3      2400            0.0000000000
     20669      2547  TIP3      OH2           -29.1193603751       27.3756687746       41.7261632997  TIP3      2401            0.0000000000
     20670      2547  TIP3      H1            -28.3828363912       27.9633591520       41.4570816021  TIP3      2401            0.0000000000
     20671      2547  TIP3      H2            -29.8385755052       28.0171600113       41.8773723987  TIP3      2401            0.0000000000
     20672      2548  TIP3      OH2           -26.9741290841       28.8436585377       40.2473050957  TIP3      2402            0.0000000000
     20673      2548  TIP3      H1            -26.7291312968       28.4714014437       39.3800339693  TIP3      2402            0.0000000000
     20674      2548  TIP3      H2            -26.1021723919       28.9639444464       40.6671181584  TIP3      2402            0.0000000000
     20675      2549  TIP3      OH2             5.9282272526       26.9377167055       42.2156466691  TIP3      2403            0.0000000000
     20676      2549  TIP3      H1              5.0521193574       26.9931678844       41.7495603236  TIP3      2403            0.0000000000
     20677      2549  TIP3      H2              6.3855920585       27.6038407751       41.6517694159  TIP3      2403            0.0000000000
     20678      2550  TIP3      OH2            -1.6042457083       29.5130610807       39.5645880916  TIP3      2404            0.0000000000
     20679      2550  TIP3      H1             -0.6415842246       29.3423772457       39.5533075012  TIP3      2404            0.0000000000
     20680      2550  TIP3      H2             -1.8997588478       28.9749945259       38.8216043055  TIP3      2404            0.0000000000
     20681      2551  TIP3      OH2            -5.3689464788      -29.7801919663       41.0743824383  TIP3      2405            0.0000000000
     20682      2551  TIP3      H1             -5.1629677968      -29.3934699249       41.9350270840  TIP3      2405            0.0000000000
     20683      2551  TIP3      H2             -4.5343115211      -30.2234529528       40.8588045676  TIP3      2405            0.0000000000
     20684      2552  TIP3      OH2             6.6099306766       28.7167968469       40.3673718505  TIP3      2406            0.0000000000
     20685      2552  TIP3      H1              6.5435100447       28.1385762523       39.5766692146  TIP3      2406            0.0000000000
     20686      2552  TIP3      H2              7.5686143007       28.8176799141       40.5052860747  TIP3      2406            0.0000000000
     20687      2553  TIP3      OH2            -9.6811995223       27.3836432484       41.1603108022  TIP3      2407            0.0000000000
     20688      2553  TIP3      H1             -8.9210052919       27.9633096408       40.9458813744  TIP3      2407            0.0000000000
     20689      2553  TIP3      H2            -10.0608726809       27.8962995139       41.8821070510  TIP3      2407            0.0000000000
     20690      2554  TIP3      OH2            -7.6633882342       29.0769684291       40.5928035812  TIP3      2408            0.0000000000
     20691      2554  TIP3      H1             -7.4049878482       28.4071558732       39.9405577666  TIP3      2408            0.0000000000
     20692      2554  TIP3      H2             -6.7945209356       29.4246575805       40.9045007978  TIP3      2408            0.0000000000
     20693      2555  TIP3      OH2            23.6409701133       26.7970128821       41.9597102199  TIP3      2409            0.0000000000
     20694      2555  TIP3      H1             22.7589808224       26.8170241725       41.5661658412  TIP3      2409            0.0000000000
     20695      2555  TIP3      H2             24.1217341462       27.5340667187       41.5211194608  TIP3      2409            0.0000000000
     20696      2556  TIP3      OH2            17.2214500646       29.5465705984       39.9838210284  TIP3      2410            0.0000000000
     20697      2556  TIP3      H1             16.6768862981       30.2856711466       40.2787078959  TIP3      2410            0.0000000000
     20698      2556  TIP3      H2             16.6727826645       29.1050962569       39.3132565758  TIP3      2410            0.0000000000
     20699      2557  TIP3      OH2            13.4613938237       30.2509743711       41.3929700936  TIP3      2411            0.0000000000
     20700      2557  TIP3      H1             13.2738086145       30.6781775316       42.2398045314  TIP3      2411            0.0000000000
     20701      2557  TIP3      H2             14.3691237927       29.9332097320       41.5046774758  TIP3      2411            0.0000000000
     20702      2558  TIP3      OH2            25.1313505831       28.5123665338       40.5501782872  TIP3      2412            0.0000000000
     20703      2558  TIP3      H1             25.1890546577       28.1383492006       39.6373929065  TIP3      2412            0.0000000000
     20704      2558  TIP3      H2             26.0759694813       28.6099194662       40.7540723000  TIP3      2412            0.0000000000
     20705      2559  TIP3      OH2             9.3253541834       27.9362350371       41.5382881646  TIP3      2413            0.0000000000
     20706      2559  TIP3      H1             10.0694516195       28.2701651633       41.0017546738  TIP3      2413            0.0000000000
     20707      2559  TIP3      H2              9.0343792666       28.7715658628       41.9637131419  TIP3      2413            0.0000000000
     20708      2560  TIP3      OH2            11.3299789470       29.0394027717       40.1396811728  TIP3      2414            0.0000000000
     20709      2560  TIP3      H1             11.4459356517       28.2807326230       39.5278939558  TIP3      2414            0.0000000000
     20710      2560  TIP3      H2             12.2186263536       29.0808570526       40.5491493392  TIP3      2414            0.0000000000
     20711      2561  TIP3      OH2            27.9408377311       27.7563645621       41.7352652205  TIP3      2415            0.0000000000
     20712      2561  TIP3      H1             28.5110398145       27.9373023473       40.9653806230  TIP3      2415            0.0000000000
     20713      2561  TIP3      H2             27.9317806218       28.6236901473       42.1897436739  TIP3      2415            0.0000000000
     20714      2562  TIP3      OH2           -30.3550106673       28.7735846853       39.7201989862  TIP3      2416            0.0000000000
     20715      2562  TIP3      H1            -29.7131044906       28.0489058101       39.8063471266  TIP3      2416            0.0000000000
     20716      2562  TIP3      H2            -29.9141536853       29.5031599204       40.2144301559  TIP3      2416            0.0000000000
     20717      2563  TIP3      OH2           -18.1830773339      -19.9015086164      -35.6772018928  TIP3      2417            0.0000000000
     20718      2563  TIP3      H1            -18.3244168904      -18.9253042305      -35.6679600651  TIP3      2417            0.0000000000
     20719      2563  TIP3      H2            -19.0719491875      -20.2030345118      -35.9119839456  TIP3      2417            0.0000000000
     20720      2564  TIP3      OH2           -19.4820433434      -21.5302070614      -32.3279530873  TIP3      2418            0.0000000000
     20721      2564  TIP3      H1            -19.2656829578      -21.8685903776      -31.4349803122  TIP3      2418            0.0000000000
     20722      2564  TIP3      H2            -20.1541380199      -22.1546406526      -32.6579683834  TIP3      2418            0.0000000000
     20723      2565  TIP3      OH2           -27.2380724793      -20.8918111074      -30.4649001461  TIP3      2419            0.0000000000
     20724      2565  TIP3      H1            -27.2066976189      -21.6987181258      -29.9072415430  TIP3      2419            0.0000000000
     20725      2565  TIP3      H2            -26.4868962109      -21.1046600303      -31.0566061394  TIP3      2419            0.0000000000
     20726      2566  TIP3      OH2           -16.1444721100      -18.2322022784      -33.9550937533  TIP3      2420            0.0000000000
     20727      2566  TIP3      H1            -16.2219030784      -18.8891959207      -33.2439332052  TIP3      2420            0.0000000000
     20728      2566  TIP3      H2            -16.0576962304      -17.4239024305      -33.4354515911  TIP3      2420            0.0000000000
     20729      2567  TIP3      OH2           -26.5467399969      -16.5851823712      -32.3759151787  TIP3      2421            0.0000000000
     20730      2567  TIP3      H1            -26.4700810303      -17.2702994198      -33.0745859066  TIP3      2421            0.0000000000
     20731      2567  TIP3      H2            -25.6434869143      -16.2381093798      -32.4631798277  TIP3      2421            0.0000000000
     20732      2568  TIP3      OH2           -29.5149206474      -23.6675124918      -37.8047541201  TIP3      2422            0.0000000000
     20733      2568  TIP3      H1            -29.7380749190      -22.7367046584      -37.9647319263  TIP3      2422            0.0000000000
     20734      2568  TIP3      H2            -30.1312371413      -23.8857997458      -37.0610996068  TIP3      2422            0.0000000000
     20735      2569  TIP3      OH2           -29.1875073038      -21.2924063832      -34.5888009679  TIP3      2423            0.0000000000
     20736      2569  TIP3      H1            -28.4250423416      -21.7705597010      -34.1813132934  TIP3      2423            0.0000000000
     20737      2569  TIP3      H2            -28.6951429808      -20.5843686429      -35.0338284325  TIP3      2423            0.0000000000
     20738      2570  TIP3      OH2           -18.3435321213      -12.5350222253      -33.8456933141  TIP3      2424            0.0000000000
     20739      2570  TIP3      H1            -17.7415294236      -13.1788955343      -34.2974281787  TIP3      2424            0.0000000000
     20740      2570  TIP3      H2            -18.9005752904      -13.1616445172      -33.3660411641  TIP3      2424            0.0000000000
     20741      2571  TIP3      OH2           -21.0094617476      -17.3779031738      -32.2930951371  TIP3      2425            0.0000000000
     20742      2571  TIP3      H1            -20.9549474650      -18.3353764844      -32.4137606011  TIP3      2425            0.0000000000
     20743      2571  TIP3      H2            -20.1966809342      -17.2182051056      -31.7910306794  TIP3      2425            0.0000000000
     20744      2572  TIP3      OH2           -12.5381313978      -26.8970758373      -31.3532132847  TIP3      2426            0.0000000000
     20745      2572  TIP3      H1            -12.4868307633      -26.2078060327      -30.6472454769  TIP3      2426            0.0000000000
     20746      2572  TIP3      H2            -11.9013894865      -26.4886840964      -31.9814975357  TIP3      2426            0.0000000000
     20747      2573  TIP3      OH2           -17.6419456219      -24.0531196283      -31.2857528090  TIP3      2427            0.0000000000
     20748      2573  TIP3      H1            -17.5786165605      -25.0269304252      -31.1871363737  TIP3      2427            0.0000000000
     20749      2573  TIP3      H2            -17.8759802020      -23.9598489356      -32.2371565931  TIP3      2427            0.0000000000
     20750      2574  TIP3      OH2           -25.2702293730      -26.0247415173      -34.1941636435  TIP3      2428            0.0000000000
     20751      2574  TIP3      H1            -24.9070868366      -25.2669028251      -34.7063474602  TIP3      2428            0.0000000000
     20752      2574  TIP3      H2            -25.5380783016      -26.5603984348      -34.9585810173  TIP3      2428            0.0000000000
     20753      2575  TIP3      OH2           -17.0112125948      -25.7981907238      -35.6690129298  TIP3      2429            0.0000000000
     20754      2575  TIP3      H1            -16.4836932836      -26.2795550012      -34.9872362012  TIP3      2429            0.0000000000
     20755      2575  TIP3      H2            -16.3680796292      -25.1807624355      -36.0617871878  TIP3      2429            0.0000000000
     20756      2576  TIP3      OH2           -28.4961522241      -24.4055875448      -34.0558123958  TIP3      2430            0.0000000000
     20757      2576  TIP3      H1            -27.7560622683      -23.9549872143      -33.5866561637  TIP3      2430            0.0000000000
     20758      2576  TIP3      H2            -28.2356042623      -24.1727529979      -34.9608114073  TIP3      2430            0.0000000000
     20759      2577  TIP3      OH2           -23.3272459249      -22.2366629143      -33.7065633563  TIP3      2431            0.0000000000
     20760      2577  TIP3      H1            -22.5114407965      -22.7351972675      -33.8570270262  TIP3      2431            0.0000000000
     20761      2577  TIP3      H2            -24.0388244001      -22.8527878739      -33.9712089896  TIP3      2431            0.0000000000
     20762      2578  TIP3      OH2           -12.4072723440      -25.4246579213      -29.0389056402  TIP3      2432            0.0000000000
     20763      2578  TIP3      H1            -12.7384014381      -24.5057033502      -29.1506268302  TIP3      2432            0.0000000000
     20764      2578  TIP3      H2            -12.4452658490      -25.4896825991      -28.0689769267  TIP3      2432            0.0000000000
     20765      2579  TIP3      OH2           -25.7273363085      -26.7591535202      -30.3642472351  TIP3      2433            0.0000000000
     20766      2579  TIP3      H1            -25.8016237891      -25.9879297466      -30.9651479401  TIP3      2433            0.0000000000
     20767      2579  TIP3      H2            -26.4627096523      -26.5489094298      -29.7426918667  TIP3      2433            0.0000000000
     20768      2580  TIP3      OH2           -19.1378628572      -17.5924245100      -36.6783308990  TIP3      2434            0.0000000000
     20769      2580  TIP3      H1            -19.4482502963      -17.6538972391      -37.5955526901  TIP3      2434            0.0000000000
     20770      2580  TIP3      H2            -19.5410711985      -16.7326503154      -36.4081884862  TIP3      2434            0.0000000000
     20771      2581  TIP3      OH2           -22.9986866541      -18.9083457393      -30.2355347555  TIP3      2435            0.0000000000
     20772      2581  TIP3      H1            -23.7720034527      -18.3446918902      -30.0072147319  TIP3      2435            0.0000000000
     20773      2581  TIP3      H2            -22.4593749165      -18.3021257078      -30.7588643320  TIP3      2435            0.0000000000
     20774      2582  TIP3      OH2           -15.6653988722      -26.7242031687      -33.5780906405  TIP3      2436            0.0000000000
     20775      2582  TIP3      H1            -16.0683087058      -26.5106169277      -32.7093746113  TIP3      2436            0.0000000000
     20776      2582  TIP3      H2            -14.7665982862      -26.3589287792      -33.4891763697  TIP3      2436            0.0000000000
     20777      2583  TIP3      OH2           -26.5704107960      -24.8577259940      -32.0325732556  TIP3      2437            0.0000000000
     20778      2583  TIP3      H1            -26.2330062089      -23.9936425055      -32.3489610275  TIP3      2437            0.0000000000
     20779      2583  TIP3      H2            -26.1422203737      -25.4477241498      -32.6870382093  TIP3      2437            0.0000000000
     20780      2584  TIP3      OH2           -24.9352607397      -17.0668060311      -29.4630115620  TIP3      2438            0.0000000000
     20781      2584  TIP3      H1            -25.0646466037      -16.1322385390      -29.7023931728  TIP3      2438            0.0000000000
     20782      2584  TIP3      H2            -25.6703513075      -17.2185527625      -28.8314895414  TIP3      2438            0.0000000000
     20783      2585  TIP3      OH2           -29.1088012222      -17.0890760248      -38.4739131619  TIP3      2439            0.0000000000
     20784      2585  TIP3      H1            -28.7419044590      -16.3912513741      -39.0478938416  TIP3      2439            0.0000000000
     20785      2585  TIP3      H2            -28.6838945780      -16.8700418908      -37.6186284781  TIP3      2439            0.0000000000
     20786      2586  TIP3      OH2           -15.2188639764      -15.9759346833      -31.6206711038  TIP3      2440            0.0000000000
     20787      2586  TIP3      H1            -16.1671270320      -15.7838286969      -31.4539164795  TIP3      2440            0.0000000000
     20788      2586  TIP3      H2            -14.9828743003      -15.1795566517      -32.1309147022  TIP3      2440            0.0000000000
     20789      2587  TIP3      OH2           -14.7333525401      -27.7647086297      -29.7887205866  TIP3      2441            0.0000000000
     20790      2587  TIP3      H1            -15.2708609416      -27.4067829839      -30.5132202759  TIP3      2441            0.0000000000
     20791      2587  TIP3      H2            -13.8458545195      -27.6736393692      -30.1944242022  TIP3      2441            0.0000000000
     20792      2588  TIP3      OH2           -22.1824677205      -29.3808532980      -33.0326771817  TIP3      2442            0.0000000000
     20793      2588  TIP3      H1            -22.2331560969      -29.9765484103      -32.2710996668  TIP3      2442            0.0000000000
     20794      2588  TIP3      H2            -22.9573964338      -28.7929778514      -32.8386396838  TIP3      2442            0.0000000000
     20795      2589  TIP3      OH2           -16.8270970982      -14.3021053360      -35.1567974743  TIP3      2443            0.0000000000
     20796      2589  TIP3      H1            -16.5531073497      -15.0660362178      -35.7100737301  TIP3      2443            0.0000000000
     20797      2589  TIP3      H2            -16.0732941432      -13.6813288940      -35.2807225908  TIP3      2443            0.0000000000
     20798      2590  TIP3      OH2           -15.8718924817      -16.3843560488      -36.5565710473  TIP3      2444            0.0000000000
     20799      2590  TIP3      H1            -15.9922821366      -17.0045777352      -37.3100893037  TIP3      2444            0.0000000000
     20800      2590  TIP3      H2            -15.9784270623      -16.9966295510      -35.8112223537  TIP3      2444            0.0000000000
     20801      2591  TIP3      OH2           -14.5729998530      -17.4981990099      -28.2114729583  TIP3      2445            0.0000000000
     20802      2591  TIP3      H1            -14.4468603067      -18.0956004372      -28.9842961382  TIP3      2445            0.0000000000
     20803      2591  TIP3      H2            -14.2663812190      -16.6442771036      -28.5812907810  TIP3      2445            0.0000000000
     20804      2592  TIP3      OH2           -19.6274771238      -20.7675327158      -38.1945903834  TIP3      2446            0.0000000000
     20805      2592  TIP3      H1            -20.4067684260      -20.1786567913      -38.3139872017  TIP3      2446            0.0000000000
     20806      2592  TIP3      H2            -18.8964169279      -20.1407888072      -38.2999978330  TIP3      2446            0.0000000000
     20807      2593  TIP3      OH2           -19.8871861099      -21.5417456278      -41.1120269719  TIP3      2447            0.0000000000
     20808      2593  TIP3      H1            -19.3807766981      -21.3597515353      -40.2917415575  TIP3      2447            0.0000000000
     20809      2593  TIP3      H2            -19.3071911738      -22.1690112292      -41.5738516025  TIP3      2447            0.0000000000
     20810      2594  TIP3      OH2           -12.4407759255      -21.0396736245      -30.0071792656  TIP3      2448            0.0000000000
     20811      2594  TIP3      H1            -13.0339251937      -20.2637775881      -30.0651244495  TIP3      2448            0.0000000000
     20812      2594  TIP3      H2            -11.9196949430      -20.8959435935      -30.8276313869  TIP3      2448            0.0000000000
     20813      2595  TIP3      OH2           -15.9507729919      -20.4462279928      -37.0973647901  TIP3      2449            0.0000000000
     20814      2595  TIP3      H1            -16.7374536444      -20.3712957892      -36.4998210667  TIP3      2449            0.0000000000
     20815      2595  TIP3      H2            -15.3268114701      -20.9551794036      -36.5368779054  TIP3      2449            0.0000000000
     20816      2596  TIP3      OH2           -16.4907789570      -21.9937095499      -27.8376889687  TIP3      2450            0.0000000000
     20817      2596  TIP3      H1            -17.0317859956      -21.3073292405      -27.3957512473  TIP3      2450            0.0000000000
     20818      2596  TIP3      H2            -16.9390852587      -21.9931077198      -28.7020620680  TIP3      2450            0.0000000000
     20819      2597  TIP3      OH2           -24.5430527696      -19.5853467773      -34.8904350868  TIP3      2451            0.0000000000
     20820      2597  TIP3      H1            -24.9622990981      -19.4392392018      -35.7562836630  TIP3      2451            0.0000000000
     20821      2597  TIP3      H2            -24.5319025941      -20.5520700415      -34.8141163107  TIP3      2451            0.0000000000
     20822      2598  TIP3      OH2           -23.5747598207      -16.6662807454      -32.7752624401  TIP3      2452            0.0000000000
     20823      2598  TIP3      H1            -23.6054030609      -16.8197177861      -33.7466614455  TIP3      2452            0.0000000000
     20824      2598  TIP3      H2            -22.6252995368      -16.8358438254      -32.5663231007  TIP3      2452            0.0000000000
     20825      2599  TIP3      OH2           -24.4494262169      -20.9735427757      -31.3083076254  TIP3      2453            0.0000000000
     20826      2599  TIP3      H1            -24.1518884075      -21.1823337706      -32.2163440687  TIP3      2453            0.0000000000
     20827      2599  TIP3      H2            -23.7881583417      -20.3198587614      -31.0248506480  TIP3      2453            0.0000000000
     20828      2600  TIP3      OH2           -17.7642601366      -15.3891724628      -30.9524964855  TIP3      2454            0.0000000000
     20829      2600  TIP3      H1            -17.6100874176      -14.9176847347      -30.1185150219  TIP3      2454            0.0000000000
     20830      2600  TIP3      H2            -18.3890779768      -16.0893197408      -30.6613338805  TIP3      2454            0.0000000000
     20831      2601  TIP3      OH2           -23.5224645173      -16.5768157550      -26.9651319595  TIP3      2455            0.0000000000
     20832      2601  TIP3      H1            -24.3044052415      -16.0749953358      -26.6541103712  TIP3      2455            0.0000000000
     20833      2601  TIP3      H2            -23.8251513971      -16.8694822394      -27.8476805998  TIP3      2455            0.0000000000
     20834      2602  TIP3      OH2           -17.0936069010      -21.4654650060      -39.4810825097  TIP3      2456            0.0000000000
     20835      2602  TIP3      H1            -16.6246336369      -21.0498377173      -38.7263427848  TIP3      2456            0.0000000000
     20836      2602  TIP3      H2            -16.8326592426      -20.8362274863      -40.1884356650  TIP3      2456            0.0000000000
     20837      2603  TIP3      OH2           -26.2513421207      -20.3460846875      -27.7125188267  TIP3      2457            0.0000000000
     20838      2603  TIP3      H1            -26.5615291335      -19.4571601096      -27.4883827190  TIP3      2457            0.0000000000
     20839      2603  TIP3      H2            -26.9523073423      -20.6965216639      -28.2947504768  TIP3      2457            0.0000000000
     20840      2604  TIP3      OH2           -20.2353056634      -15.1655514174      -36.3489456687  TIP3      2458            0.0000000000
     20841      2604  TIP3      H1            -19.8670503283      -14.3100602397      -36.1057709183  TIP3      2458            0.0000000000
     20842      2604  TIP3      H2            -20.4702667998      -15.0346091546      -37.2925227357  TIP3      2458            0.0000000000
     20843      2605  TIP3      OH2           -25.5003165126      -14.6108271125      -26.3392149769  TIP3      2459            0.0000000000
     20844      2605  TIP3      H1            -25.4464656524      -14.4605582357      -27.3044806690  TIP3      2459            0.0000000000
     20845      2605  TIP3      H2            -26.4246281060      -14.9087365619      -26.2346653105  TIP3      2459            0.0000000000
     20846      2606  TIP3      OH2           -13.2929813989      -29.8555618374      -39.6175232548  TIP3      2460            0.0000000000
     20847      2606  TIP3      H1            -14.2603473585      -29.8908336043      -39.6815083298  TIP3      2460            0.0000000000
     20848      2606  TIP3      H2            -13.1320892358      -28.9128079795      -39.8077090719  TIP3      2460            0.0000000000
     20849      2607  TIP3      OH2           -25.2192062059      -21.6521612433      -38.2669636796  TIP3      2461            0.0000000000
     20850      2607  TIP3      H1            -25.2275840680      -20.6900223398      -38.0741575072  TIP3      2461            0.0000000000
     20851      2607  TIP3      H2            -26.0402810104      -21.9635987412      -37.8590344510  TIP3      2461            0.0000000000
     20852      2608  TIP3      OH2           -12.8343770586      -15.5279884875      -41.6608073626  TIP3      2462            0.0000000000
     20853      2608  TIP3      H1            -12.4108121972      -14.8646055167      -42.2220509208  TIP3      2462            0.0000000000
     20854      2608  TIP3      H2            -12.0325541048      -15.8200122023      -41.1784955395  TIP3      2462            0.0000000000
     20855      2609  TIP3      OH2           -28.9084964713      -18.5125727018      -29.1994418377  TIP3      2463            0.0000000000
     20856      2609  TIP3      H1            -29.8459770004      -18.2460516730      -29.0941814336  TIP3      2463            0.0000000000
     20857      2609  TIP3      H2            -28.9947897701      -19.4193279610      -28.8269742389  TIP3      2463            0.0000000000
     20858      2610  TIP3      OH2           -29.5029780019      -15.7062563460      -32.4511068752  TIP3      2464            0.0000000000
     20859      2610  TIP3      H1            -28.6619644448      -15.3019122121      -32.1801826812  TIP3      2464            0.0000000000
     20860      2610  TIP3      H2            -29.9600845205      -15.8378668484      -31.6118982879  TIP3      2464            0.0000000000
     20861      2611  TIP3      OH2           -11.8037091507      -15.0656179631      -26.7443105530  TIP3      2465            0.0000000000
     20862      2611  TIP3      H1            -11.6471180222      -15.6199585773      -25.9654360101  TIP3      2465            0.0000000000
     20863      2611  TIP3      H2            -12.5407955116      -14.5164172812      -26.3882289839  TIP3      2465            0.0000000000
     20864      2612  TIP3      OH2           -20.9142363563      -15.5879188348      -27.5434522557  TIP3      2466            0.0000000000
     20865      2612  TIP3      H1            -20.6236854897      -14.8734787449      -26.9476659295  TIP3      2466            0.0000000000
     20866      2612  TIP3      H2            -21.7993071266      -15.8281959132      -27.1970770711  TIP3      2466            0.0000000000
     20867      2613  TIP3      OH2           -20.3428196130      -11.8438991469      -37.9709534626  TIP3      2467            0.0000000000
     20868      2613  TIP3      H1            -20.3677963526      -11.6100553884      -38.9226507920  TIP3      2467            0.0000000000
     20869      2613  TIP3      H2            -20.1607084870      -10.9775929092      -37.5586965782  TIP3      2467            0.0000000000
     20870      2614  TIP3      OH2           -26.3651042892      -12.8170444468      -36.1016462124  TIP3      2468            0.0000000000
     20871      2614  TIP3      H1            -26.0153591492      -12.9396361203      -35.1789844113  TIP3      2468            0.0000000000
     20872      2614  TIP3      H2            -26.7906615807      -13.6988423964      -36.2440825703  TIP3      2468            0.0000000000
     20873      2615  TIP3      OH2           -17.1819085071      -12.3887018241      -40.7107029430  TIP3      2469            0.0000000000
     20874      2615  TIP3      H1            -16.5924341303      -13.1228469396      -40.9623913255  TIP3      2469            0.0000000000
     20875      2615  TIP3      H2            -17.2738344498      -12.5233567391      -39.7449726526  TIP3      2469            0.0000000000
     20876      2616  TIP3      OH2           -17.6109344316      -12.5219484467      -38.0638374616  TIP3      2470            0.0000000000
     20877      2616  TIP3      H1            -18.5842039685      -12.4301193158      -38.0302996111  TIP3      2470            0.0000000000
     20878      2616  TIP3      H2            -17.4752847274      -13.2945882495      -37.4984264488  TIP3      2470            0.0000000000
     20879      2617  TIP3      OH2           -14.8962695692      -23.2074189328      -25.8993800974  TIP3      2471            0.0000000000
     20880      2617  TIP3      H1            -15.2816874381      -22.6574560127      -26.6157344812  TIP3      2471            0.0000000000
     20881      2617  TIP3      H2            -14.6485562238      -24.0065900777      -26.3988426184  TIP3      2471            0.0000000000
     20882      2618  TIP3      OH2           -26.9353903921      -17.0058018273      -27.7254455656  TIP3      2472            0.0000000000
     20883      2618  TIP3      H1            -26.8525719003      -17.3661412550      -26.8020748648  TIP3      2472            0.0000000000
     20884      2618  TIP3      H2            -27.7720588058      -17.4082781846      -28.0280500334  TIP3      2472            0.0000000000
     20885      2619  TIP3      OH2           -24.3859181316      -28.4492464381      -31.9966920399  TIP3      2473            0.0000000000
     20886      2619  TIP3      H1            -25.1329087521      -28.7153121603      -32.5655699561  TIP3      2473            0.0000000000
     20887      2619  TIP3      H2            -24.8245579432      -27.7275398245      -31.5109205328  TIP3      2473            0.0000000000
     20888      2620  TIP3      OH2           -20.2450943322      -28.4881619616      -27.4134824601  TIP3      2474            0.0000000000
     20889      2620  TIP3      H1            -19.5470133414      -28.8663924638      -27.9762159355  TIP3      2474            0.0000000000
     20890      2620  TIP3      H2            -21.0558123296      -28.7700922099      -27.8728133896  TIP3      2474            0.0000000000
     20891      2621  TIP3      OH2           -17.1576177831      -24.6999069145      -27.6727087642  TIP3      2475            0.0000000000
     20892      2621  TIP3      H1            -17.7460642162      -25.0952831250      -26.9760933129  TIP3      2475            0.0000000000
     20893      2621  TIP3      H2            -17.0697308702      -23.7715621443      -27.3815908607  TIP3      2475            0.0000000000
     20894      2622  TIP3      OH2           -16.0577047436      -19.9687681752      -41.3994736365  TIP3      2476            0.0000000000
     20895      2622  TIP3      H1            -16.0171224799      -20.0291096758      -42.3680590069  TIP3      2476            0.0000000000
     20896      2622  TIP3      H2            -15.2563564156      -19.4444390118      -41.2206997635  TIP3      2476            0.0000000000
     20897      2623  TIP3      OH2           -20.4506888736      -26.2618222483      -40.8241275302  TIP3      2477            0.0000000000
     20898      2623  TIP3      H1            -20.6901421099      -26.6241627741      -39.9643743218  TIP3      2477            0.0000000000
     20899      2623  TIP3      H2            -20.5556177498      -27.0613692430      -41.3647023532  TIP3      2477            0.0000000000
     20900      2624  TIP3      OH2           -24.5139691295      -23.6879610074      -30.5096202156  TIP3      2478            0.0000000000
     20901      2624  TIP3      H1            -25.4462436671      -23.6726346743      -30.2532282163  TIP3      2478            0.0000000000
     20902      2624  TIP3      H2            -24.3835203766      -22.7577559030      -30.7803614478  TIP3      2478            0.0000000000
     20903      2625  TIP3      OH2           -24.5461271403      -24.1798914865      -35.9161244727  TIP3      2479            0.0000000000
     20904      2625  TIP3      H1            -25.4712665322      -23.9757618069      -36.1578411975  TIP3      2479            0.0000000000
     20905      2625  TIP3      H2            -24.1548413218      -24.3490801643      -36.8066903171  TIP3      2479            0.0000000000
     20906      2626  TIP3      OH2           -18.8254180082      -23.0511438225      -37.0598185871  TIP3      2480            0.0000000000
     20907      2626  TIP3      H1            -19.1121174078      -22.1972979608      -37.4643766651  TIP3      2480            0.0000000000
     20908      2626  TIP3      H2            -18.2668922257      -23.4012796665      -37.7720278298  TIP3      2480            0.0000000000
     20909      2627  TIP3      OH2           -20.2260691286      -22.7105032359      -25.9051330563  TIP3      2481            0.0000000000
     20910      2627  TIP3      H1            -20.6089013112      -23.5117044062      -25.4868458590  TIP3      2481            0.0000000000
     20911      2627  TIP3      H2            -19.4870582635      -22.5217906834      -25.3028235636  TIP3      2481            0.0000000000
     20912      2628  TIP3      OH2           -17.9318996747      -23.6311368877      -33.9464383953  TIP3      2482            0.0000000000
     20913      2628  TIP3      H1            -18.3633328053      -22.8652072162      -34.3717772610  TIP3      2482            0.0000000000
     20914      2628  TIP3      H2            -17.9879149628      -24.2838305536      -34.6659839811  TIP3      2482            0.0000000000
     20915      2629  TIP3      OH2           -26.9981858523      -23.2239646627      -29.1752155956  TIP3      2483            0.0000000000
     20916      2629  TIP3      H1            -26.3969408340      -23.1253408374      -28.4236342349  TIP3      2483            0.0000000000
     20917      2629  TIP3      H2            -27.2603239946      -24.1714671775      -29.0937284740  TIP3      2483            0.0000000000
     20918      2630  TIP3      OH2           -23.4135967401      -26.0890152521      -41.9336793147  TIP3      2484            0.0000000000
     20919      2630  TIP3      H1            -23.7179714372      -26.1270161579      -41.0119090113  TIP3      2484            0.0000000000
     20920      2630  TIP3      H2            -23.1319445854      -25.1571393098      -41.9964269421  TIP3      2484            0.0000000000
     20921      2631  TIP3      OH2           -30.3061124147      -26.6504913604      -35.3721773688  TIP3      2485            0.0000000000
     20922      2631  TIP3      H1            -29.4671254589      -26.5151287079      -34.9076014591  TIP3      2485            0.0000000000
     20923      2631  TIP3      H2            -30.4707213509      -27.5930775935      -35.1957411739  TIP3      2485            0.0000000000
     20924      2632  TIP3      OH2           -29.0254881318      -25.2833402948      -39.9113838334  TIP3      2486            0.0000000000
     20925      2632  TIP3      H1            -28.6765123949      -24.7292090377      -40.6491369852  TIP3      2486            0.0000000000
     20926      2632  TIP3      H2            -29.1332819503      -24.6189748211      -39.1890522685  TIP3      2486            0.0000000000
     20927      2633  TIP3      OH2           -18.7760936607      -22.2727191350      -29.7996466149  TIP3      2487            0.0000000000
     20928      2633  TIP3      H1            -18.2432598569      -22.9962718264      -30.2146410158  TIP3      2487            0.0000000000
     20929      2633  TIP3      H2            -19.4858437056      -22.7998473950      -29.3616563667  TIP3      2487            0.0000000000
     20930      2634  TIP3      OH2           -21.5462494605      -26.5783602002      -34.8235831528  TIP3      2488            0.0000000000
     20931      2634  TIP3      H1            -22.3790815194      -26.3698234130      -34.3891820858  TIP3      2488            0.0000000000
     20932      2634  TIP3      H2            -20.9277779283      -26.7140907341      -34.0739620379  TIP3      2488            0.0000000000
     20933      2635  TIP3      OH2           -27.1748945118      -24.4555084331      -36.7345556855  TIP3      2489            0.0000000000
     20934      2635  TIP3      H1            -28.0007482623      -24.3330647693      -37.2546088043  TIP3      2489            0.0000000000
     20935      2635  TIP3      H2            -26.9787382820      -25.4042056554      -36.8568221534  TIP3      2489            0.0000000000
     20936      2636  TIP3      OH2           -23.6062251447      -24.4435163156      -38.3922878627  TIP3      2490            0.0000000000
     20937      2636  TIP3      H1            -22.7096793059      -24.0931494937      -38.3569564950  TIP3      2490            0.0000000000
     20938      2636  TIP3      H2            -23.9881071926      -23.9624368462      -39.1698274420  TIP3      2490            0.0000000000
     20939      2637  TIP3      OH2           -17.3239932229      -26.7385830143      -31.4441737933  TIP3      2491            0.0000000000
     20940      2637  TIP3      H1            -17.7023514585      -27.1288802512      -30.6382186556  TIP3      2491            0.0000000000
     20941      2637  TIP3      H2            -18.0139156657      -26.9766687418      -32.0940109037  TIP3      2491            0.0000000000
     20942      2638  TIP3      OH2           -24.3216429730      -23.6444145474      -40.8674478683  TIP3      2492            0.0000000000
     20943      2638  TIP3      H1            -25.0132835498      -23.6779961968      -41.5431944536  TIP3      2492            0.0000000000
     20944      2638  TIP3      H2            -23.7038691816      -22.9829471745      -41.2427431950  TIP3      2492            0.0000000000
     20945      2639  TIP3      OH2           -14.5673808935      -11.3003600526      -25.0062960696  TIP3      2493            0.0000000000
     20946      2639  TIP3      H1            -14.1553803714      -10.5138602511      -25.4071518238  TIP3      2493            0.0000000000
     20947      2639  TIP3      H2            -13.9641135530      -11.4605741137      -24.2591132421  TIP3      2493            0.0000000000
     20948      2640  TIP3      OH2           -26.7672557378      -18.4605950670      -25.5296000659  TIP3      2494            0.0000000000
     20949      2640  TIP3      H1            -26.1517560057      -18.4581210612      -24.7590470053  TIP3      2494            0.0000000000
     20950      2640  TIP3      H2            -27.2611476046      -19.2942793546      -25.3591254694  TIP3      2494            0.0000000000
     20951      2641  TIP3      OH2           -21.0342698789      -23.8666792730      -33.0021750958  TIP3      2495            0.0000000000
     20952      2641  TIP3      H1            -20.2714071658      -24.4560420585      -33.0066971657  TIP3      2495            0.0000000000
     20953      2641  TIP3      H2            -21.5970340598      -24.2746266581      -32.3166820195  TIP3      2495            0.0000000000
     20954      2642  TIP3      OH2           -26.1598170019      -27.1424843370      -36.6087684969  TIP3      2496            0.0000000000
     20955      2642  TIP3      H1            -26.8119905834      -27.7882151321      -36.2710369051  TIP3      2496            0.0000000000
     20956      2642  TIP3      H2            -25.4850912212      -27.7324429550      -36.9720299602  TIP3      2496            0.0000000000
     20957      2643  TIP3      OH2           -22.2173812322      -24.9417287878      -30.5081575464  TIP3      2497            0.0000000000
     20958      2643  TIP3      H1            -23.0248649894      -24.3708507147      -30.4068185899  TIP3      2497            0.0000000000
     20959      2643  TIP3      H2            -21.5681094198      -24.4575392273      -29.9700798746  TIP3      2497            0.0000000000
     20960      2644  TIP3      OH2           -21.4719393564      -18.8373585400      -38.5289252587  TIP3      2498            0.0000000000
     20961      2644  TIP3      H1            -22.2937014831      -19.2269639794      -38.9088288787  TIP3      2498            0.0000000000
     20962      2644  TIP3      H2            -21.8101975592      -18.5703483371      -37.6312422665  TIP3      2498            0.0000000000
     20963      2645  TIP3      OH2           -14.3459448814      -19.0853682129      -30.4046655599  TIP3      2499            0.0000000000
     20964      2645  TIP3      H1            -13.8382949830      -18.6584259722      -31.1377482186  TIP3      2499            0.0000000000
     20965      2645  TIP3      H2            -15.1954991019      -19.2953462150      -30.8405487542  TIP3      2499            0.0000000000
     20966      2646  TIP3      OH2           -17.3981129189      -25.9358049455      -41.3251339083  TIP3      2500            0.0000000000
     20967      2646  TIP3      H1            -18.3599818397      -25.8036467224      -41.3925913452  TIP3      2500            0.0000000000
     20968      2646  TIP3      H2            -17.2123903043      -25.3601406151      -40.5606269347  TIP3      2500            0.0000000000
     20969      2647  TIP3      OH2           -20.4921023574      -18.2344684823      -27.5454285008  TIP3      2501            0.0000000000
     20970      2647  TIP3      H1            -20.5248975292      -18.5814706422      -26.6444183726  TIP3      2501            0.0000000000
     20971      2647  TIP3      H2            -20.5582992676      -17.2726704756      -27.4083962876  TIP3      2501            0.0000000000
     20972      2648  TIP3      OH2           -17.0221888704      -24.1371983695      -38.8424899571  TIP3      2502            0.0000000000
     20973      2648  TIP3      H1            -16.3317767726      -24.1121977547      -38.1540138079  TIP3      2502            0.0000000000
     20974      2648  TIP3      H2            -16.8804993743      -23.2763913999      -39.2882605545  TIP3      2502            0.0000000000
     20975      2649  TIP3      OH2           -26.4195291242      -19.0843467802      -33.1802604520  TIP3      2503            0.0000000000
     20976      2649  TIP3      H1            -25.6288665886      -18.9353128533      -33.7512703717  TIP3      2503            0.0000000000
     20977      2649  TIP3      H2            -26.3899572945      -20.0745405911      -33.2232115037  TIP3      2503            0.0000000000
     20978      2650  TIP3      OH2           -19.2618898858      -17.4772986261      -39.7054917015  TIP3      2504            0.0000000000
     20979      2650  TIP3      H1            -19.6830149237      -16.6136981073      -39.5404157232  TIP3      2504            0.0000000000
     20980      2650  TIP3      H2            -19.9903132017      -18.1128791124      -39.5652221780  TIP3      2504            0.0000000000
     20981      2651  TIP3      OH2           -29.3641254081      -21.0321651560      -27.8680412069  TIP3      2505            0.0000000000
     20982      2651  TIP3      H1            -28.8647099613      -21.1618755885      -27.0388667808  TIP3      2505            0.0000000000
     20983      2651  TIP3      H2            -30.2425522348      -21.3091919264      -27.5541015414  TIP3      2505            0.0000000000
     20984      2652  TIP3      OH2           -22.3878270975      -21.1814252209      -25.9268177194  TIP3      2506            0.0000000000
     20985      2652  TIP3      H1            -22.8794551446      -21.8540761243      -26.4291228076  TIP3      2506            0.0000000000
     20986      2652  TIP3      H2            -21.4756435785      -21.5560264165      -26.0201253717  TIP3      2506            0.0000000000
     20987      2653  TIP3      OH2           -17.6363164545      -15.8832234140      -27.4771326522  TIP3      2507            0.0000000000
     20988      2653  TIP3      H1            -18.4478677145      -15.9684004890      -27.9978905857  TIP3      2507            0.0000000000
     20989      2653  TIP3      H2            -17.9593041842      -15.4236908475      -26.6777257855  TIP3      2507            0.0000000000
     20990      2654  TIP3      OH2           -12.0483101082      -23.9791468700      -39.4322818148  TIP3      2508            0.0000000000
     20991      2654  TIP3      H1            -12.7690166709      -24.0527545449      -40.0727238829  TIP3      2508            0.0000000000
     20992      2654  TIP3      H2            -11.7760592414      -23.0519931037      -39.5787645066  TIP3      2508            0.0000000000
     20993      2655  TIP3      OH2           -11.7924989010      -18.0734597900      -26.8624966723  TIP3      2509            0.0000000000
     20994      2655  TIP3      H1            -12.7694277866      -18.1074837487      -26.9178644670  TIP3      2509            0.0000000000
     20995      2655  TIP3      H2            -11.6401448680      -19.0290191371      -26.9515109767  TIP3      2509            0.0000000000
     20996      2656  TIP3      OH2           -13.4909925984      -15.1605557656      -38.9047777983  TIP3      2510            0.0000000000
     20997      2656  TIP3      H1            -14.1466654300      -15.8144771622      -38.6470760313  TIP3      2510            0.0000000000
     20998      2656  TIP3      H2            -13.5593536431      -15.1395001092      -39.8805514273  TIP3      2510            0.0000000000
     20999      2657  TIP3      OH2           -16.6501544272      -19.9720247374      -31.7618812485  TIP3      2511            0.0000000000
     21000      2657  TIP3      H1            -17.5474372931      -20.2894073995      -31.9852067232  TIP3      2511            0.0000000000
     21001      2657  TIP3      H2            -16.1218128739      -20.6499573072      -32.2308791844  TIP3      2511            0.0000000000
     21002      2658  TIP3      OH2           -24.3665971126      -16.0662352262      -35.3510524832  TIP3      2512            0.0000000000
     21003      2658  TIP3      H1            -23.7397566609      -15.4770612113      -35.8200135359  TIP3      2512            0.0000000000
     21004      2658  TIP3      H2            -24.6860594680      -16.6118775867      -36.0965791363  TIP3      2512            0.0000000000
     21005      2659  TIP3      OH2           -28.6487281291      -21.3881235804      -40.6248529369  TIP3      2513            0.0000000000
     21006      2659  TIP3      H1            -27.7627365707      -20.9706788154      -40.6863382175  TIP3      2513            0.0000000000
     21007      2659  TIP3      H2            -29.1153835967      -20.6339629704      -40.2393734968  TIP3      2513            0.0000000000
     21008      2660  TIP3      OH2           -22.6020980547      -18.4968048128      -36.2047774330  TIP3      2514            0.0000000000
     21009      2660  TIP3      H1            -23.4053549087      -18.3824453380      -36.7631726498  TIP3      2514            0.0000000000
     21010      2660  TIP3      H2            -23.0348598369      -18.8474780424      -35.3981583875  TIP3      2514            0.0000000000
     21011      2661  TIP3      OH2           -22.0833255708      -13.9632070756      -29.4286940219  TIP3      2515            0.0000000000
     21012      2661  TIP3      H1            -21.3678284809      -13.3398645647      -29.6443800427  TIP3      2515            0.0000000000
     21013      2661  TIP3      H2            -21.6539264058      -14.5019412571      -28.7254090896  TIP3      2515            0.0000000000
     21014      2662  TIP3      OH2           -23.6982090098      -13.2981035227      -36.4605436046  TIP3      2516            0.0000000000
     21015      2662  TIP3      H1            -24.6623841575      -13.1560442043      -36.4460918857  TIP3      2516            0.0000000000
     21016      2662  TIP3      H2            -23.4028671717      -12.3967382491      -36.2092641007  TIP3      2516            0.0000000000
     21017      2663  TIP3      OH2           -19.0242061940      -17.6952802420      -30.1611519729  TIP3      2517            0.0000000000
     21018      2663  TIP3      H1            -19.4049485159      -18.1602342153      -29.3852874356  TIP3      2517            0.0000000000
     21019      2663  TIP3      H2            -18.2487812589      -18.2541445350      -30.3451474825  TIP3      2517            0.0000000000
     21020      2664  TIP3      OH2           -16.3167111636      -16.7466050765      -40.6080060987  TIP3      2518            0.0000000000
     21021      2664  TIP3      H1            -16.0270082337      -17.3281552468      -39.8627954068  TIP3      2518            0.0000000000
     21022      2664  TIP3      H2            -17.2508826433      -17.0246045815      -40.6732250916  TIP3      2518            0.0000000000
     21023      2665  TIP3      OH2           -15.6482427286      -13.7170831371      -27.8447918808  TIP3      2519            0.0000000000
     21024      2665  TIP3      H1            -16.5364363942      -14.1292987089      -27.8520397284  TIP3      2519            0.0000000000
     21025      2665  TIP3      H2            -15.7409721799      -13.0541211954      -28.5626723039  TIP3      2519            0.0000000000
     21026      2666  TIP3      OH2           -12.0122659198      -12.5606082701      -40.5515648947  TIP3      2520            0.0000000000
     21027      2666  TIP3      H1            -11.6497866125      -12.0902597919      -41.3130100332  TIP3      2520            0.0000000000
     21028      2666  TIP3      H2            -12.5326410470      -11.8507579140      -40.1161550041  TIP3      2520            0.0000000000
     21029      2667  TIP3      OH2           -27.9180623885      -25.8121829820      -28.8143126700  TIP3      2521            0.0000000000
     21030      2667  TIP3      H1            -28.3395170826      -25.6520633945      -27.9392685620  TIP3      2521            0.0000000000
     21031      2667  TIP3      H2            -28.5321545645      -26.4868217594      -29.1536762171  TIP3      2521            0.0000000000
     21032      2668  TIP3      OH2           -15.5487256954      -18.2866093576      -38.5494799747  TIP3      2522            0.0000000000
     21033      2668  TIP3      H1            -15.7510110723      -19.1024214444      -38.0252824266  TIP3      2522            0.0000000000
     21034      2668  TIP3      H2            -14.5736246422      -18.3121824270      -38.5705258429  TIP3      2522            0.0000000000
     21035      2669  TIP3      OH2           -28.1125765882      -14.7231722006      -29.9352553637  TIP3      2523            0.0000000000
     21036      2669  TIP3      H1            -27.4985176742      -15.3638326682      -29.5445082435  TIP3      2523            0.0000000000
     21037      2669  TIP3      H2            -28.2418178627      -14.0803550295      -29.2236080343  TIP3      2523            0.0000000000
     21038      2670  TIP3      OH2           -23.4350493324      -16.3668758831      -40.2788707713  TIP3      2524            0.0000000000
     21039      2670  TIP3      H1            -23.1045448223      -16.9996449978      -39.6176650620  TIP3      2524            0.0000000000
     21040      2670  TIP3      H2            -23.2531556741      -15.4901017463      -39.8842194975  TIP3      2524            0.0000000000
     21041      2671  TIP3      OH2           -27.2684920559      -19.2667958757      -39.8980835788  TIP3      2525            0.0000000000
     21042      2671  TIP3      H1            -27.8182364953      -18.7718887724      -39.2764756700  TIP3      2525            0.0000000000
     21043      2671  TIP3      H2            -26.3871804457      -18.9970066125      -39.5600812574  TIP3      2525            0.0000000000
     21044      2672  TIP3      OH2           -18.9472024082      -26.4815736198      -28.8981374159  TIP3      2526            0.0000000000
     21045      2672  TIP3      H1            -18.1115648314      -26.0737128180      -28.6000075845  TIP3      2526            0.0000000000
     21046      2672  TIP3      H2            -19.3057369573      -26.8513811676      -28.0629073016  TIP3      2526            0.0000000000
     21047      2673  TIP3      OH2           -18.1890159263      -26.9455455066      -37.7204477884  TIP3      2527            0.0000000000
     21048      2673  TIP3      H1            -18.3658235480      -26.1398788779      -38.2392338650  TIP3      2527            0.0000000000
     21049      2673  TIP3      H2            -17.7884411017      -26.5340484629      -36.9171492831  TIP3      2527            0.0000000000
     21050      2674  TIP3      OH2           -20.3492066791      -14.8657312576      -38.9984453724  TIP3      2528            0.0000000000
     21051      2674  TIP3      H1            -21.2390979999      -14.4439481951      -39.0432494947  TIP3      2528            0.0000000000
     21052      2674  TIP3      H2            -19.8910017737      -14.4406594856      -39.7572615880  TIP3      2528            0.0000000000
     21053      2675  TIP3      OH2           -20.8654078144      -25.0663061271      -36.9712934661  TIP3      2529            0.0000000000
     21054      2675  TIP3      H1            -20.3266701165      -24.2640271397      -36.8489018620  TIP3      2529            0.0000000000
     21055      2675  TIP3      H2            -21.2814517972      -25.2141276054      -36.1011612637  TIP3      2529            0.0000000000
     21056      2676  TIP3      OH2           -20.2852823103      -23.9604193069      -28.4342798225  TIP3      2530            0.0000000000
     21057      2676  TIP3      H1            -20.1080815089      -23.7108637976      -27.5078515894  TIP3      2530            0.0000000000
     21058      2676  TIP3      H2            -19.8943307396      -24.8512383395      -28.5107734761  TIP3      2530            0.0000000000
     21059      2677  TIP3      OH2           -20.3958988452      -28.4453013989      -36.6943979917  TIP3      2531            0.0000000000
     21060      2677  TIP3      H1            -20.5796754979      -27.7666306278      -36.0046554053  TIP3      2531            0.0000000000
     21061      2677  TIP3      H2            -19.5350670091      -28.0985525586      -37.0150048475  TIP3      2531            0.0000000000
     21062      2678  TIP3      OH2           -22.8445904946      -13.7565757935      -39.2683283554  TIP3      2532            0.0000000000
     21063      2678  TIP3      H1            -22.7290150164      -12.9561944324      -39.8107264934  TIP3      2532            0.0000000000
     21064      2678  TIP3      H2            -23.4320412108      -13.4116484512      -38.5639133397  TIP3      2532            0.0000000000
     21065      2679  TIP3      OH2           -24.9420968302      -27.0726460869      -39.7113304141  TIP3      2533            0.0000000000
     21066      2679  TIP3      H1            -25.3071726629      -26.6048807012      -38.9494174582  TIP3      2533            0.0000000000
     21067      2679  TIP3      H2            -24.0167443842      -27.1472544813      -39.4029141951  TIP3      2533            0.0000000000
     21068      2680  TIP3      OH2           -14.7659294593      -26.0065529090      -27.2813813590  TIP3      2534            0.0000000000
     21069      2680  TIP3      H1            -15.6420955556      -25.6086317360      -27.4826335245  TIP3      2534            0.0000000000
     21070      2680  TIP3      H2            -14.5692669750      -26.4866584881      -28.1031839292  TIP3      2534            0.0000000000
     21071      2681  TIP3      OH2           -15.7243808207      -22.1622754984      -33.2208491641  TIP3      2535            0.0000000000
     21072      2681  TIP3      H1            -16.5336811497      -22.7051817041      -33.2580998410  TIP3      2535            0.0000000000
     21073      2681  TIP3      H2            -15.0977572470      -22.7435029651      -32.7315695200  TIP3      2535            0.0000000000
     21074      2682  TIP3      OH2           -26.3297371683      -16.3882890939      -40.8843424546  TIP3      2536            0.0000000000
     21075      2682  TIP3      H1            -25.6251650970      -16.3348078341      -40.2103056354  TIP3      2536            0.0000000000
     21076      2682  TIP3      H2            -26.0572133091      -17.2237527746      -41.3176812910  TIP3      2536            0.0000000000
     21077      2683  TIP3      OH2           -28.0851839646      -23.9163245943      -42.0737362846  TIP3      2537            0.0000000000
     21078      2683  TIP3      H1            -27.6870307026      -23.0830359069      -41.7882804881  TIP3      2537            0.0000000000
     21079      2683  TIP3      H2            -28.9931449275      -23.6244279710      -42.2301771738  TIP3      2537            0.0000000000
     21080      2684  TIP3      OH2           -14.5462463065      -13.0528987812      -31.7143815471  TIP3      2538            0.0000000000
     21081      2684  TIP3      H1            -14.6048368679      -12.3311704798      -32.3759248478  TIP3      2538            0.0000000000
     21082      2684  TIP3      H2            -13.5758329661      -13.0112342177      -31.5419092559  TIP3      2538            0.0000000000
     21083      2685  TIP3      OH2           -26.5820399774      -29.4364880998      -33.4367047492  TIP3      2539            0.0000000000
     21084      2685  TIP3      H1            -27.1256041008      -29.1767975295      -34.2163794048  TIP3      2539            0.0000000000
     21085      2685  TIP3      H2            -26.6251583434      -30.3985704224      -33.5308814400  TIP3      2539            0.0000000000
     21086      2686  TIP3      OH2           -27.9881675681      -14.9151535615      -36.4027260752  TIP3      2540            0.0000000000
     21087      2686  TIP3      H1            -28.7479541036      -14.5898082017      -35.9087768849  TIP3      2540            0.0000000000
     21088      2686  TIP3      H2            -28.1125590007      -14.6195161800      -37.3270096067  TIP3      2540            0.0000000000
     21089      2687  TIP3      OH2           -28.6565731470      -12.5615912258      -25.5698174672  TIP3      2541            0.0000000000
     21090      2687  TIP3      H1            -28.0048977636      -12.5959790990      -24.8492965920  TIP3      2541            0.0000000000
     21091      2687  TIP3      H2            -28.7937668852      -13.5135388884      -25.7480915348  TIP3      2541            0.0000000000
     21092      2688  TIP3      OH2           -23.9247750457      -12.9861875218      -24.4831323913  TIP3      2542            0.0000000000
     21093      2688  TIP3      H1            -23.2532575026      -13.6507220890      -24.2432288856  TIP3      2542            0.0000000000
     21094      2688  TIP3      H2            -24.3661972983      -13.4491198601      -25.2289505442  TIP3      2542            0.0000000000
     21095      2689  TIP3      OH2           -19.5335464010      -13.9524276854      -41.4204079539  TIP3      2543            0.0000000000
     21096      2689  TIP3      H1            -20.1698940826      -14.5940359725      -41.7814825821  TIP3      2543            0.0000000000
     21097      2689  TIP3      H2            -19.2755923433      -13.5195648610      -42.2601829503  TIP3      2543            0.0000000000
     21098      2690  TIP3      OH2           -18.0738655814      -14.6263705492      -25.0106757147  TIP3      2544            0.0000000000
     21099      2690  TIP3      H1            -18.4255614929      -15.5145345496      -24.7677597401  TIP3      2544            0.0000000000
     21100      2690  TIP3      H2            -17.1256601817      -14.7468897386      -24.7925002044  TIP3      2544            0.0000000000
     21101      2691  TIP3      OH2           -15.3552520752      -14.3579276921      -42.0692766545  TIP3      2545            0.0000000000
     21102      2691  TIP3      H1            -15.8429919094      -15.0622096850      -41.5938169336  TIP3      2545            0.0000000000
     21103      2691  TIP3      H2            -14.4615931918      -14.7304185498      -41.9295572678  TIP3      2545            0.0000000000
     21104      2692  TIP3      OH2           -29.5410221334      -18.5461755411      -23.8873543571  TIP3      2546            0.0000000000
     21105      2692  TIP3      H1            -28.9603008376      -19.1297706975      -23.3533799082  TIP3      2546            0.0000000000
     21106      2692  TIP3      H2            -30.3315225001      -19.1068112887      -23.9287052044  TIP3      2546            0.0000000000
     21107      2693  TIP3      OH2           -24.9810767077      -18.6528139280      -41.9957807141  TIP3      2547            0.0000000000
     21108      2693  TIP3      H1            -24.4503151623      -18.7722420655      -41.1941334578  TIP3      2547            0.0000000000
     21109      2693  TIP3      H2            -24.3289428966      -18.9770210839      -42.6508094294  TIP3      2547            0.0000000000
     21110      2694  TIP3      OH2           -22.5025320621      -18.5640698630      -25.2396106092  TIP3      2548            0.0000000000
     21111      2694  TIP3      H1            -22.6200269579      -18.0275286527      -26.0526251682  TIP3      2548            0.0000000000
     21112      2694  TIP3      H2            -22.6160863708      -19.4957331182      -25.5530550895  TIP3      2548            0.0000000000
     21113      2695  TIP3      OH2           -17.0652749842      -18.5736446175      -27.7755622240  TIP3      2549            0.0000000000
     21114      2695  TIP3      H1            -16.1418613643      -18.2567421611      -27.9001694552  TIP3      2549            0.0000000000
     21115      2695  TIP3      H2            -17.4440208864      -17.6984293504      -27.5654011759  TIP3      2549            0.0000000000
     21116      2696  TIP3      OH2           -27.8747513141      -21.2426323622      -25.2663244052  TIP3      2550            0.0000000000
     21117      2696  TIP3      H1            -27.4061838163      -22.0918761709      -25.3036480664  TIP3      2550            0.0000000000
     21118      2696  TIP3      H2            -28.3882935563      -21.3631567803      -24.4469042184  TIP3      2550            0.0000000000
     21119      2697  TIP3      OH2           -23.3355592428      -20.4522222808      -39.8993278892  TIP3      2551            0.0000000000
     21120      2697  TIP3      H1            -24.0054416861      -20.9746710230      -39.4118870455  TIP3      2551            0.0000000000
     21121      2697  TIP3      H2            -23.0508902872      -21.0881597831      -40.5869379359  TIP3      2551            0.0000000000
     21122      2698  TIP3      OH2           -24.4214314880      -22.4531789070      -27.8133785172  TIP3      2552            0.0000000000
     21123      2698  TIP3      H1            -24.9787796279      -21.7114585579      -27.5038972357  TIP3      2552            0.0000000000
     21124      2698  TIP3      H2            -23.9108416337      -22.0216579477      -28.5308164754  TIP3      2552            0.0000000000
     21125      2699  TIP3      OH2           -22.3873818540      -22.0716262442      -41.8197852989  TIP3      2553            0.0000000000
     21126      2699  TIP3      H1            -22.2315763107      -21.4703144738      -42.5688923997  TIP3      2553            0.0000000000
     21127      2699  TIP3      H2            -21.4871094964      -22.0680199954      -41.4070460329  TIP3      2553            0.0000000000
     21128      2700  TIP3      OH2           -19.0275204515      -19.6500654576      -24.4443438360  TIP3      2554            0.0000000000
     21129      2700  TIP3      H1            -18.1123218668      -19.9083671484      -24.6927355756  TIP3      2554            0.0000000000
     21130      2700  TIP3      H2            -19.2549659049      -20.2775093431      -23.7375808538  TIP3      2554            0.0000000000
     21131      2701  TIP3      OH2           -13.1348560089      -19.2244390554       42.1443703558  TIP3      2555            0.0000000000
     21132      2701  TIP3      H1            -13.4314618420      -19.4126098031       41.2413800227  TIP3      2555            0.0000000000
     21133      2701  TIP3      H2            -12.7224777895      -18.3535426479       42.0594850882  TIP3      2555            0.0000000000
     21134      2702  TIP3      OH2           -23.3187450041      -24.9978319985      -27.0042631976  TIP3      2556            0.0000000000
     21135      2702  TIP3      H1            -23.2926079924      -25.6680368328      -27.7245331310  TIP3      2556            0.0000000000
     21136      2702  TIP3      H2            -23.5051332656      -24.1500411104      -27.4739226829  TIP3      2556            0.0000000000
     21137      2703  TIP3      OH2           -23.3064093098      -26.9430348227      -29.0572232680  TIP3      2557            0.0000000000
     21138      2703  TIP3      H1            -22.7494663807      -26.3949446932      -29.6584352773  TIP3      2557            0.0000000000
     21139      2703  TIP3      H2            -24.1821530868      -26.8322766899      -29.4860518807  TIP3      2557            0.0000000000
     21140      2704  TIP3      OH2           -22.2236965623      -21.2556816335      -29.2792985746  TIP3      2558            0.0000000000
     21141      2704  TIP3      H1            -21.2833952045      -21.0637094237      -29.1761168863  TIP3      2558            0.0000000000
     21142      2704  TIP3      H2            -22.5584453242      -20.3884517490      -29.6003204322  TIP3      2558            0.0000000000
     21143      2705  TIP3      OH2           -17.7034844403      -23.3127810257      -24.2311683634  TIP3      2559            0.0000000000
     21144      2705  TIP3      H1            -17.5094189449      -24.2642227301      -24.2143111783  TIP3      2559            0.0000000000
     21145      2705  TIP3      H2            -16.8530956828      -22.8903076264      -24.4540401997  TIP3      2559            0.0000000000
     21146      2706  TIP3      OH2           -16.4439721973      -20.3341770639      -25.5961013944  TIP3      2560            0.0000000000
     21147      2706  TIP3      H1            -16.5967529287      -19.6133473887      -26.2372881354  TIP3      2560            0.0000000000
     21148      2706  TIP3      H2            -15.4808825981      -20.4617150204      -25.6915193023  TIP3      2560            0.0000000000
     21149      2707  TIP3      OH2           -25.0963908920      -24.2387936153      -25.1298459814  TIP3      2561            0.0000000000
     21150      2707  TIP3      H1            -25.8768927203      -24.8308676117      -25.0417998392  TIP3      2561            0.0000000000
     21151      2707  TIP3      H2            -24.5767236887      -24.6533772330      -25.8569632017  TIP3      2561            0.0000000000
     21152      2708  TIP3      OH2           -22.8615496237      -29.3716412967      -28.1030722576  TIP3      2562            0.0000000000
     21153      2708  TIP3      H1            -23.0238810603      -28.4434229456      -28.4003481702  TIP3      2562            0.0000000000
     21154      2708  TIP3      H2            -23.7173937795      -29.7907817572      -28.2553576394  TIP3      2562            0.0000000000
     21155      2709  TIP3      OH2           -21.4462226654      -25.1140235655      -24.9502423079  TIP3      2563            0.0000000000
     21156      2709  TIP3      H1            -22.0374760056      -25.4618307923      -24.2557820784  TIP3      2563            0.0000000000
     21157      2709  TIP3      H2            -22.0432276866      -25.1149249963      -25.7345738701  TIP3      2563            0.0000000000
     21158      2710  TIP3      OH2           -18.7603887230      -25.7630484785      -25.7021007246  TIP3      2564            0.0000000000
     21159      2710  TIP3      H1            -19.7132209932      -25.7760623915      -25.4712114873  TIP3      2564            0.0000000000
     21160      2710  TIP3      H2            -18.3699764973      -26.1626837556      -24.8887792180  TIP3      2564            0.0000000000
     21161      2711  TIP3      OH2           -17.4554394194      -26.7176398216      -23.6243590557  TIP3      2565            0.0000000000
     21162      2711  TIP3      H1            -17.1183699023      -27.6030056113      -23.8917475639  TIP3      2565            0.0000000000
     21163      2711  TIP3      H2            -16.7966543822      -26.4498321524      -22.9736044281  TIP3      2565            0.0000000000
     21164      2712  TIP3      OH2           -27.1894196695      -26.0905501054      -24.5804949718  TIP3      2566            0.0000000000
     21165      2712  TIP3      H1            -27.7453025179      -26.5251333028      -25.2504458491  TIP3      2566            0.0000000000
     21166      2712  TIP3      H2            -27.2989411065      -26.6615063060      -23.7869774064  TIP3      2566            0.0000000000
     21167      2713  TIP3      OH2           -22.1831020592      -29.8056124694      -25.4187067310  TIP3      2567            0.0000000000
     21168      2713  TIP3      H1            -21.2385564707      -29.8419857909      -25.6213767088  TIP3      2567            0.0000000000
     21169      2713  TIP3      H2            -22.4844403230      -29.7279949044      -26.3462564407  TIP3      2567            0.0000000000
     21170      2714  TIP3      OH2           -21.8173003448      -27.9344589905      -23.4148379269  TIP3      2568            0.0000000000
     21171      2714  TIP3      H1            -22.1701462962      -28.5963374161      -24.0475716819  TIP3      2568            0.0000000000
     21172      2714  TIP3      H2            -22.5618648792      -27.3064031983      -23.3746789198  TIP3      2568            0.0000000000
     21173      2715  TIP3      OH2           -22.7365052884      -11.6191221142      -41.0100403259  TIP3      2569            0.0000000000
     21174      2715  TIP3      H1            -21.8495107636      -11.2437236353      -40.8829839944  TIP3      2569            0.0000000000
     21175      2715  TIP3      H2            -22.7429528927      -11.8179322666      -41.9673169318  TIP3      2569            0.0000000000
     21176      2716  TIP3      OH2           -29.2699223835      -16.5385477706      -41.6826791753  TIP3      2570            0.0000000000
     21177      2716  TIP3      H1            -28.5444915462      -15.9178484790      -41.5303916602  TIP3      2570            0.0000000000
     21178      2716  TIP3      H2            -28.8787632532      -17.3421144741      -41.3090655662  TIP3      2570            0.0000000000
     21179      2717  TIP3      OH2            29.8650096022      -11.9914282135      -36.5305685756  TIP3      2571            0.0000000000
     21180      2717  TIP3      H1             29.0280243469      -12.4783020293      -36.6016210874  TIP3      2571            0.0000000000
     21181      2717  TIP3      H2             30.2200194003      -12.3548215838      -35.6886588686  TIP3      2571            0.0000000000
     21182      2718  TIP3      OH2           -29.4621627977      -13.1017390617      -34.2414086272  TIP3      2572            0.0000000000
     21183      2718  TIP3      H1            -29.9724408822      -13.8807124387      -33.9623148552  TIP3      2572            0.0000000000
     21184      2718  TIP3      H2            -28.8532117487      -12.9621476763      -33.4891759035  TIP3      2572            0.0000000000
     21185      2719  TIP3      OH2           -11.9654959585      -12.5018504478      -31.5770092922  TIP3      2573            0.0000000000
     21186      2719  TIP3      H1            -11.7629471167      -11.6480369547      -31.1632718491  TIP3      2573            0.0000000000
     21187      2719  TIP3      H2            -11.4342760697      -12.4624251659      -32.3901615793  TIP3      2573            0.0000000000
     21188      2720  TIP3      OH2           -12.4028855428      -12.9476867502      -28.4682520795  TIP3      2574            0.0000000000
     21189      2720  TIP3      H1            -12.7905420450      -13.5348662683      -29.1418848441  TIP3      2574            0.0000000000
     21190      2720  TIP3      H2            -12.1290422610      -13.6206885590      -27.8151142212  TIP3      2574            0.0000000000
     21191      2721  TIP3      OH2           -13.5596515579      -17.2460306627      -23.8855368947  TIP3      2575            0.0000000000
     21192      2721  TIP3      H1            -14.4788761363      -17.1995038294      -23.5822193407  TIP3      2575            0.0000000000
     21193      2721  TIP3      H2            -13.2712240673      -16.3115647365      -23.8170488180  TIP3      2575            0.0000000000
     21194      2722  TIP3      OH2           -12.7446740835      -18.7111809950      -38.8642595061  TIP3      2576            0.0000000000
     21195      2722  TIP3      H1            -11.8753979483      -18.3301453545      -38.5898334718  TIP3      2576            0.0000000000
     21196      2722  TIP3      H2            -12.8683470226      -19.3604861982      -38.1391133036  TIP3      2576            0.0000000000
     21197      2723  TIP3      OH2           -12.4510019806      -20.6228715341      -36.6553621891  TIP3      2577            0.0000000000
     21198      2723  TIP3      H1            -13.1575689916      -21.1697350915      -36.2370037563  TIP3      2577            0.0000000000
     21199      2723  TIP3      H2            -11.7911562193      -20.6114409328      -35.9244010649  TIP3      2577            0.0000000000
     21200      2724  TIP3      OH2           -12.4347263879      -18.0728568987      -31.9397948513  TIP3      2578            0.0000000000
     21201      2724  TIP3      H1            -11.7479517711      -18.7433042497      -32.1284252097  TIP3      2578            0.0000000000
     21202      2724  TIP3      H2            -12.1138005202      -17.2744189232      -32.3918177026  TIP3      2578            0.0000000000
     21203      2725  TIP3      OH2           -13.8092526483      -15.1568555682      -29.4491741666  TIP3      2579            0.0000000000
     21204      2725  TIP3      H1            -14.4440465638      -14.6212824467      -28.9292124930  TIP3      2579            0.0000000000
     21205      2725  TIP3      H2            -14.3499720760      -15.4657886398      -30.2121534613  TIP3      2579            0.0000000000
     21206      2726  TIP3      OH2           -12.1217239762      -21.0321174058      -40.3643955451  TIP3      2580            0.0000000000
     21207      2726  TIP3      H1            -12.8680450776      -21.0241292027      -40.9797382762  TIP3      2580            0.0000000000
     21208      2726  TIP3      H2            -12.1999393585      -20.1540261792      -39.9320602249  TIP3      2580            0.0000000000
     21209      2727  TIP3      OH2           -14.5772209378      -23.7210443388      -41.3512365051  TIP3      2581            0.0000000000
     21210      2727  TIP3      H1            -13.8651383742      -23.3098398441      -41.8652154714  TIP3      2581            0.0000000000
     21211      2727  TIP3      H2            -14.5532303333      -24.6485949907      -41.6908550078  TIP3      2581            0.0000000000
     21212      2728  TIP3      OH2           -14.3845254548      -22.0882808935      -35.5833105239  TIP3      2582            0.0000000000
     21213      2728  TIP3      H1            -14.6685171212      -22.9362632173      -35.9467448592  TIP3      2582            0.0000000000
     21214      2728  TIP3      H2            -14.7633587145      -22.1188333657      -34.6806864142  TIP3      2582            0.0000000000
     21215      2729  TIP3      OH2           -29.2690899045      -20.1093266482      -32.0059989143  TIP3      2583            0.0000000000
     21216      2729  TIP3      H1            -29.4778540481      -20.4845263575      -32.8853816436  TIP3      2583            0.0000000000
     21217      2729  TIP3      H2            -28.4768458867      -20.6419848583      -31.7479004753  TIP3      2583            0.0000000000
     21218      2730  TIP3      OH2           -13.4943738783      -20.2234962912      -26.3096241775  TIP3      2584            0.0000000000
     21219      2730  TIP3      H1            -13.3633502492      -21.1939948319      -26.3403472458  TIP3      2584            0.0000000000
     21220      2730  TIP3      H2            -13.0017205497      -20.0343246765      -25.4794798189  TIP3      2584            0.0000000000
     21221      2731  TIP3      OH2           -12.2393526749      -22.5852755847      -26.0411161386  TIP3      2585            0.0000000000
     21222      2731  TIP3      H1            -12.9482563602      -22.9955084039      -25.5226916170  TIP3      2585            0.0000000000
     21223      2731  TIP3      H2            -11.4883997644      -22.6128919766      -25.4059540336  TIP3      2585            0.0000000000
     21224      2732  TIP3      OH2           -14.6597370766      -26.1877476027      -42.3667483401  TIP3      2586            0.0000000000
     21225      2732  TIP3      H1            -14.4670628669      -27.0499885645      -41.9811002294  TIP3      2586            0.0000000000
     21226      2732  TIP3      H2            -15.6388262953      -26.1558146357      -42.2701574894  TIP3      2586            0.0000000000
     21227      2733  TIP3      OH2           -14.8940640141      -24.6176683461      -37.2601535237  TIP3      2587            0.0000000000
     21228      2733  TIP3      H1            -14.7320703525      -25.5819789040      -37.1019338771  TIP3      2587            0.0000000000
     21229      2733  TIP3      H2            -14.4863574222      -24.5347486191      -38.1397272792  TIP3      2587            0.0000000000
     21230      2734  TIP3      OH2           -13.9878140617      -23.8615263724      -31.7680570420  TIP3      2588            0.0000000000
     21231      2734  TIP3      H1            -13.0033731410      -23.7923073429      -31.8090507583  TIP3      2588            0.0000000000
     21232      2734  TIP3      H2            -14.0883839016      -23.7879744167      -30.7963867649  TIP3      2588            0.0000000000
     21233      2735  TIP3      OH2           -13.9752834114      -23.1220791720      -29.0875846249  TIP3      2589            0.0000000000
     21234      2735  TIP3      H1            -14.8933077941      -22.8053170664      -29.0145268927  TIP3      2589            0.0000000000
     21235      2735  TIP3      H2            -13.4796156060      -22.2823044917      -29.2397010756  TIP3      2589            0.0000000000
     21236      2736  TIP3      OH2           -29.2090844175      -25.1327668589      -26.2745452184  TIP3      2590            0.0000000000
     21237      2736  TIP3      H1            -28.6201942325      -24.8196789575      -25.5619043471  TIP3      2590            0.0000000000
     21238      2736  TIP3      H2            -30.0320845621      -25.3255614814      -25.7712662925  TIP3      2590            0.0000000000
     21239      2737  TIP3      OH2           -11.1025003315      -29.1763377107      -23.6573822555  TIP3      2591            0.0000000000
     21240      2737  TIP3      H1            -10.7473065098      -29.9124849149      -24.1670905047  TIP3      2591            0.0000000000
     21241      2737  TIP3      H2            -11.5585203423      -28.7027180428      -24.3811740580  TIP3      2591            0.0000000000
     21242      2738  TIP3      OH2           -14.2932516266      -27.2314114905      -37.0798213915  TIP3      2592            0.0000000000
     21243      2738  TIP3      H1            -13.8699343004      -27.6489618446      -36.3100035916  TIP3      2592            0.0000000000
     21244      2738  TIP3      H2            -14.4418777945      -28.0052258436      -37.6612794921  TIP3      2592            0.0000000000
     21245      2739  TIP3      OH2           -29.0319876323      -26.8656535759      -32.8557463585  TIP3      2593            0.0000000000
     21246      2739  TIP3      H1            -28.6178218672      -26.9948947484      -31.9880895123  TIP3      2593            0.0000000000
     21247      2739  TIP3      H2            -28.6275542356      -26.0193712994      -33.1397224651  TIP3      2593            0.0000000000
     21248      2740  TIP3      OH2           -29.9755891479      -23.3460829164      -31.8308131738  TIP3      2594            0.0000000000
     21249      2740  TIP3      H1            -29.5952258137      -23.6696697861      -32.6703306381  TIP3      2594            0.0000000000
     21250      2740  TIP3      H2            -29.1688886705      -23.3702517971      -31.2878625915  TIP3      2594            0.0000000000
     21251      2741  TIP3      OH2           -12.3345428542      -27.4570061257      -25.3809468852  TIP3      2595            0.0000000000
     21252      2741  TIP3      H1            -13.0668280715      -26.8235828428      -25.2493789470  TIP3      2595            0.0000000000
     21253      2741  TIP3      H2            -12.6901308016      -27.9770524681      -26.1409616839  TIP3      2595            0.0000000000
     21254      2742  TIP3      OH2           -12.0143275715      -27.8461820519      -40.8922630057  TIP3      2596            0.0000000000
     21255      2742  TIP3      H1            -12.4058905948      -28.4260183819      -41.5725914447  TIP3      2596            0.0000000000
     21256      2742  TIP3      H2            -11.5579543795      -27.1836822213      -41.4372555536  TIP3      2596            0.0000000000
     21257      2743  TIP3      OH2            29.8294778189      -27.6701801051      -37.9479647509  TIP3      2597            0.0000000000
     21258      2743  TIP3      H1             29.1883424859      -27.3297425479      -37.2991807889  TIP3      2597            0.0000000000
     21259      2743  TIP3      H2             29.8040441111      -26.9414809390      -38.5951001266  TIP3      2597            0.0000000000
     21260      2744  TIP3      OH2           -14.9477571037      -12.4552234853      -35.3754210841  TIP3      2598            0.0000000000
     21261      2744  TIP3      H1            -14.2507963457      -12.6268086370      -36.0538453920  TIP3      2598            0.0000000000
     21262      2744  TIP3      H2            -14.4648624642      -11.8430072864      -34.7847516471  TIP3      2598            0.0000000000
     21263      2745  TIP3      OH2            30.7811336569      -28.2299462173      -29.6620636405  TIP3      2599            0.0000000000
     21264      2745  TIP3      H1             30.7112673985      -29.1401010484      -29.3381187683  TIP3      2599            0.0000000000
     21265      2745  TIP3      H2             29.8928958191      -27.8687125089      -29.4799655604  TIP3      2599            0.0000000000
     21266      2746  TIP3      OH2           -28.2936822568      -15.2726292379      -25.1887280587  TIP3      2600            0.0000000000
     21267      2746  TIP3      H1            -28.6000687861      -15.9851652597      -25.7675873416  TIP3      2600            0.0000000000
     21268      2746  TIP3      H2            -28.7139923285      -15.5373059419      -24.3521950080  TIP3      2600            0.0000000000
     21269      2747  TIP3      OH2           -24.8463505045      -14.1239476046      -29.0060877241  TIP3      2601            0.0000000000
     21270      2747  TIP3      H1            -24.9789040787      -13.2127539797      -29.3615568435  TIP3      2601            0.0000000000
     21271      2747  TIP3      H2            -23.8852439197      -14.2323103732      -29.1499396321  TIP3      2601            0.0000000000
     21272      2748  TIP3      OH2           -20.7053805737      -12.9520007772      -26.3208925306  TIP3      2602            0.0000000000
     21273      2748  TIP3      H1            -20.5761154178      -13.1814742286      -25.3744880343  TIP3      2602            0.0000000000
     21274      2748  TIP3      H2            -19.8258206431      -12.5519791158      -26.5248569037  TIP3      2602            0.0000000000
     21275      2749  TIP3      OH2           -18.4904499888      -11.4145681358      -26.4851162234  TIP3      2603            0.0000000000
     21276      2749  TIP3      H1            -17.6909238546      -11.5879492909      -27.0129203853  TIP3      2603            0.0000000000
     21277      2749  TIP3      H2            -18.1274035442      -11.3029655434      -25.5793120632  TIP3      2603            0.0000000000
     21278      2750  TIP3      OH2           -13.3543078977      -28.8371775329      -27.4618647967  TIP3      2604            0.0000000000
     21279      2750  TIP3      H1            -13.9921998898      -28.3648240138      -28.0260734334  TIP3      2604            0.0000000000
     21280      2750  TIP3      H2            -13.2585721431      -29.6905011278      -27.9103027518  TIP3      2604            0.0000000000
     21281      2751  TIP3      OH2           -27.3075724176      -10.9658245137      -29.0043618262  TIP3      2605            0.0000000000
     21282      2751  TIP3      H1            -28.1932412848      -10.6140075851      -29.2446522159  TIP3      2605            0.0000000000
     21283      2751  TIP3      H2            -27.1660513057      -10.5200111566      -28.1435305865  TIP3      2605            0.0000000000
     21284      2752  TIP3      OH2           -25.0185601270      -11.5919457071      -30.1638841811  TIP3      2606            0.0000000000
     21285      2752  TIP3      H1            -25.8753655501      -11.4255322119      -29.6977726382  TIP3      2606            0.0000000000
     21286      2752  TIP3      H2            -24.8839680359      -10.7404457753      -30.6282476223  TIP3      2606            0.0000000000
     21287      2753  TIP3      OH2           -20.3929336668      -11.9098791779      -30.9663643477  TIP3      2607            0.0000000000
     21288      2753  TIP3      H1            -20.9162369522      -12.0210947929      -31.7744992372  TIP3      2607            0.0000000000
     21289      2753  TIP3      H2            -20.7181584036      -11.0382678308      -30.6889936235  TIP3      2607            0.0000000000
     21290      2754  TIP3      OH2           -18.3255361939      -12.9450993975      -29.3851567151  TIP3      2608            0.0000000000
     21291      2754  TIP3      H1            -18.8377115140      -12.7220445140      -30.1919587251  TIP3      2608            0.0000000000
     21292      2754  TIP3      H2            -17.4830759966      -12.4770496114      -29.5800180608  TIP3      2608            0.0000000000
     21293      2755  TIP3      OH2           -15.9098075544      -11.8613029046      -29.7495414474  TIP3      2609            0.0000000000
     21294      2755  TIP3      H1            -15.6406190208      -10.9555849713      -29.9638295809  TIP3      2609            0.0000000000
     21295      2755  TIP3      H2            -15.4610123375      -12.3739887036      -30.4648522928  TIP3      2609            0.0000000000
     21296      2756  TIP3      OH2           -28.0640481725      -12.7886650756      -31.9403155567  TIP3      2610            0.0000000000
     21297      2756  TIP3      H1            -27.9957750564      -13.3292968944      -31.1249101098  TIP3      2610            0.0000000000
     21298      2756  TIP3      H2            -27.2138603619      -12.9864761055      -32.3623778585  TIP3      2610            0.0000000000
     21299      2757  TIP3      OH2           -25.3416434597      -13.7084936746      -33.8715546429  TIP3      2611            0.0000000000
     21300      2757  TIP3      H1            -24.9582444129      -14.4663465343      -34.3681998838  TIP3      2611            0.0000000000
     21301      2757  TIP3      H2            -24.7914404462      -13.7481069310      -33.0630605415  TIP3      2611            0.0000000000
     21302      2758  TIP3      OH2           -23.4781661138      -13.8543775768      -31.9468013725  TIP3      2612            0.0000000000
     21303      2758  TIP3      H1            -23.1103684463      -14.7049981159      -32.2528454691  TIP3      2612            0.0000000000
     21304      2758  TIP3      H2            -23.0470371970      -13.7438410250      -31.0765096759  TIP3      2612            0.0000000000
     21305      2759  TIP3      OH2           -19.7828617223      -27.5144885550      -33.0041779073  TIP3      2613            0.0000000000
     21306      2759  TIP3      H1            -20.4497002525      -28.2162823107      -32.8582919621  TIP3      2613            0.0000000000
     21307      2759  TIP3      H2            -19.1551746771      -28.0518526319      -33.5330049985  TIP3      2613            0.0000000000
     21308      2760  TIP3      OH2           -13.9474417292      -29.9047728129      -32.5473060027  TIP3      2614            0.0000000000
     21309      2760  TIP3      H1            -13.3775480161      -29.3217996467      -33.0974619514  TIP3      2614            0.0000000000
     21310      2760  TIP3      H2            -14.5902494664      -29.2698157003      -32.2006638025  TIP3      2614            0.0000000000
     21311      2761  TIP3      OH2           -12.7959920448      -28.7928440754      -34.9740389636  TIP3      2615            0.0000000000
     21312      2761  TIP3      H1            -12.3880311013      -29.0793557462      -35.8080112393  TIP3      2615            0.0000000000
     21313      2761  TIP3      H2            -12.3703254810      -27.9170958212      -34.7955629672  TIP3      2615            0.0000000000
     21314      2762  TIP3      OH2           -27.9697346590      -29.1090290761      -35.8012811332  TIP3      2616            0.0000000000
     21315      2762  TIP3      H1            -28.5931329633      -29.1053838460      -36.5494291785  TIP3      2616            0.0000000000
     21316      2762  TIP3      H2            -27.3394958066      -29.8306436889      -36.0500141195  TIP3      2616            0.0000000000
     21317      2763  TIP3      OH2           -28.8517915215      -29.2793575762      -39.5057390899  TIP3      2617            0.0000000000
     21318      2763  TIP3      H1            -28.1153428426      -28.7602712392      -39.8851591728  TIP3      2617            0.0000000000
     21319      2763  TIP3      H2            -29.3814664717      -28.6118406331      -38.9930305461  TIP3      2617            0.0000000000
     21320      2764  TIP3      OH2           -23.0119167591      -29.9742632618      -35.8098413911  TIP3      2618            0.0000000000
     21321      2764  TIP3      H1            -22.4804662956      -29.2539307873      -36.1658061869  TIP3      2618            0.0000000000
     21322      2764  TIP3      H2            -22.9153871601      -29.7759395115      -34.8619262268  TIP3      2618            0.0000000000
     21323      2765  TIP3      OH2           -18.1424745142      -29.2059978716      -34.5108941271  TIP3      2619            0.0000000000
     21324      2765  TIP3      H1            -17.2405256674      -28.8989538391      -34.6558144895  TIP3      2619            0.0000000000
     21325      2765  TIP3      H2            -17.9195377879      -30.1088238007      -34.1978834986  TIP3      2619            0.0000000000
     21326      2766  TIP3      OH2           -16.0634547171      -29.0129828650      -38.9459586709  TIP3      2620            0.0000000000
     21327      2766  TIP3      H1            -16.7650834050      -28.3560862861      -38.7604818346  TIP3      2620            0.0000000000
     21328      2766  TIP3      H2            -16.2904333610      -29.8037871734      -38.4339005710  TIP3      2620            0.0000000000
     21329      2767  TIP3      OH2           -28.5365693136      -13.5667302954      -38.8136199464  TIP3      2621            0.0000000000
     21330      2767  TIP3      H1            -29.4430816056      -13.4701811706      -39.1592518378  TIP3      2621            0.0000000000
     21331      2767  TIP3      H2            -28.3196630039      -12.6192982217      -38.7214845600  TIP3      2621            0.0000000000
     21332      2768  TIP3      OH2           -27.1250862987      -27.7318101917      -41.5256218070  TIP3      2622            0.0000000000
     21333      2768  TIP3      H1            -26.5430569298      -28.2454080776      -42.1000545111  TIP3      2622            0.0000000000
     21334      2768  TIP3      H2            -26.5071116943      -27.4103160748      -40.8437154719  TIP3      2622            0.0000000000
     21335      2769  TIP3      OH2           -22.1035422348      -27.1023121853      -38.5603368198  TIP3      2623            0.0000000000
     21336      2769  TIP3      H1            -21.5126945109      -27.6025329983      -37.9650480464  TIP3      2623            0.0000000000
     21337      2769  TIP3      H2            -21.9549436405      -26.2044038254      -38.1893920100  TIP3      2623            0.0000000000
     21338      2770  TIP3      OH2           -19.8885156032      -11.3683857406      -40.6422460848  TIP3      2624            0.0000000000
     21339      2770  TIP3      H1            -19.5567465461      -10.9402786196      -41.4414212072  TIP3      2624            0.0000000000
     21340      2770  TIP3      H2            -19.4987296293      -12.2629863373      -40.7648253081  TIP3      2624            0.0000000000
     21341      2771  TIP3      OH2           -13.2781841972      -12.9348735246      -37.3710063510  TIP3      2625            0.0000000000
     21342      2771  TIP3      H1            -13.3121846756      -13.7381656792      -37.9520718152  TIP3      2625            0.0000000000
     21343      2771  TIP3      H2            -13.3726887617      -12.2347037955      -38.0500403578  TIP3      2625            0.0000000000
     21344      2772  TIP3      OH2           -28.2771104702      -28.5774520098      -26.5305560628  TIP3      2626            0.0000000000
     21345      2772  TIP3      H1            -28.4909908111      -29.5072269783      -26.6732027770  TIP3      2626            0.0000000000
     21346      2772  TIP3      H2            -27.3481014750      -28.6539715313      -26.2689641970  TIP3      2626            0.0000000000
     21347      2773  TIP3      OH2           -25.6523024369      -29.8359882481      -25.2127692511  TIP3      2627            0.0000000000
     21348      2773  TIP3      H1            -25.0351033683      -29.1198918764      -25.4207863745  TIP3      2627            0.0000000000
     21349      2773  TIP3      H2            -25.0900064818      -30.6190554389      -25.3408888759  TIP3      2627            0.0000000000
     21350      2774  TIP3      OH2           -26.8575571476      -12.3109251424      -41.3671949514  TIP3      2628            0.0000000000
     21351      2774  TIP3      H1            -27.3663239536      -11.8254352867      -40.6827232161  TIP3      2628            0.0000000000
     21352      2774  TIP3      H2            -26.8760760369      -13.2132517250      -41.0309545314  TIP3      2628            0.0000000000
     21353      2775  TIP3      OH2           -16.3683045873      -29.1610831710      -24.1905325905  TIP3      2629            0.0000000000
     21354      2775  TIP3      H1            -16.5745921246      -30.0146000671      -23.7480273017  TIP3      2629            0.0000000000
     21355      2775  TIP3      H2            -16.5563132978      -29.3613646317      -25.1134187868  TIP3      2629            0.0000000000
     21356      2776  TIP3      OH2           -14.0146459126      -13.8128468703      -25.7902630114  TIP3      2630            0.0000000000
     21357      2776  TIP3      H1            -14.6236054279      -13.9443472504      -26.5578876732  TIP3      2630            0.0000000000
     21358      2776  TIP3      H2            -14.2851212780      -12.9068647515      -25.5302849205  TIP3      2630            0.0000000000
     21359      2777  TIP3      OH2             0.4825713546      -19.9485619835      -35.5341034905  TIP3      2631            0.0000000000
     21360      2777  TIP3      H1              0.2608371202      -18.9896313971      -35.5322393288  TIP3      2631            0.0000000000
     21361      2777  TIP3      H2             -0.2229519127      -20.2732074065      -36.1175159249  TIP3      2631            0.0000000000
     21362      2778  TIP3      OH2            -0.6381594260      -21.2353499309      -31.9851024282  TIP3      2632            0.0000000000
     21363      2778  TIP3      H1             -0.4031422006      -21.7466956226      -31.1829560034  TIP3      2632            0.0000000000
     21364      2778  TIP3      H2             -1.1292803825      -21.9113780848      -32.5039347105  TIP3      2632            0.0000000000
     21365      2779  TIP3      OH2            -8.6103193288      -20.9601877912      -30.4776670181  TIP3      2633            0.0000000000
     21366      2779  TIP3      H1             -8.5952677252      -21.6552167274      -29.7998095795  TIP3      2633            0.0000000000
     21367      2779  TIP3      H2             -7.6807328354      -20.9752663804      -30.7643980119  TIP3      2633            0.0000000000
     21368      2780  TIP3      OH2             2.9239691978      -17.9518556167      -34.0152591151  TIP3      2634            0.0000000000
     21369      2780  TIP3      H1              3.6390529597      -18.4580651390      -33.6181441864  TIP3      2634            0.0000000000
     21370      2780  TIP3      H2              2.6762605483      -17.3571541966      -33.2906643977  TIP3      2634            0.0000000000
     21371      2781  TIP3      OH2            -7.6260475122      -16.5804503041      -32.2592232696  TIP3      2635            0.0000000000
     21372      2781  TIP3      H1             -7.8965047762      -17.4561694633      -32.6118768298  TIP3      2635            0.0000000000
     21373      2781  TIP3      H2             -6.6728332959      -16.6575916426      -32.4545807520  TIP3      2635            0.0000000000
     21374      2782  TIP3      OH2           -10.9185737116      -23.6632356314      -36.8253548603  TIP3      2636            0.0000000000
     21375      2782  TIP3      H1            -11.0774149138      -22.7770079552      -36.4664070435  TIP3      2636            0.0000000000
     21376      2782  TIP3      H2            -11.2936139130      -23.6010789957      -37.7168729887  TIP3      2636            0.0000000000
     21377      2783  TIP3      OH2           -10.1244783461      -20.7135233095      -34.8226245193  TIP3      2637            0.0000000000
     21378      2783  TIP3      H1             -9.5390350971      -21.3860348166      -34.4094595270  TIP3      2637            0.0000000000
     21379      2783  TIP3      H2             -9.5282318901      -19.9537049261      -34.8252701113  TIP3      2637            0.0000000000
     21380      2784  TIP3      OH2             0.2990425277      -12.6139031097      -33.8034069179  TIP3      2638            0.0000000000
     21381      2784  TIP3      H1              0.8573852306      -13.1663825424      -34.3976671702  TIP3      2638            0.0000000000
     21382      2784  TIP3      H2              0.0359246997      -13.2988712290      -33.1783058870  TIP3      2638            0.0000000000
     21383      2785  TIP3      OH2            -2.4117044582      -17.6690786382      -31.7961087055  TIP3      2639            0.0000000000
     21384      2785  TIP3      H1             -2.2149488973      -18.4959115404      -32.2496378679  TIP3      2639            0.0000000000
     21385      2785  TIP3      H2             -1.5618936372      -17.4988289508      -31.3450078949  TIP3      2639            0.0000000000
     21386      2786  TIP3      OH2             6.3750587944      -26.9602386531      -31.4793406237  TIP3      2640            0.0000000000
     21387      2786  TIP3      H1              6.4064298463      -26.1525706920      -30.9443331044  TIP3      2640            0.0000000000
     21388      2786  TIP3      H2              6.5703054455      -26.6111813623      -32.3673932694  TIP3      2640            0.0000000000
     21389      2787  TIP3      OH2             1.0680797601      -24.2940166318      -31.3814899837  TIP3      2641            0.0000000000
     21390      2787  TIP3      H1              1.0986726414      -25.2718037902      -31.4194810408  TIP3      2641            0.0000000000
     21391      2787  TIP3      H2              0.9814224755      -24.0286217520      -32.3213087096  TIP3      2641            0.0000000000
     21392      2788  TIP3      OH2            -5.9567008905      -26.0346942370      -34.4520736090  TIP3      2642            0.0000000000
     21393      2788  TIP3      H1             -5.7288685525      -25.2028278767      -34.9371164248  TIP3      2642            0.0000000000
     21394      2788  TIP3      H2             -6.5434280730      -26.4525397565      -35.1186697058  TIP3      2642            0.0000000000
     21395      2789  TIP3      OH2             3.1381379383      -25.8586140805      -35.3697887922  TIP3      2643            0.0000000000
     21396      2789  TIP3      H1              3.3060425600      -26.3179251415      -34.5160798452  TIP3      2643            0.0000000000
     21397      2789  TIP3      H2              2.1547858797      -25.9054461476      -35.4033751070  TIP3      2643            0.0000000000
     21398      2790  TIP3      OH2            -9.9911045069      -23.5800306103      -33.7984017261  TIP3      2644            0.0000000000
     21399      2790  TIP3      H1             -9.1359317549      -23.1150529299      -33.6384976289  TIP3      2644            0.0000000000
     21400      2790  TIP3      H2             -9.6811872964      -24.1584631349      -34.5298687335  TIP3      2644            0.0000000000
     21401      2791  TIP3      OH2            -4.3072420876      -21.6573367795      -33.6838413899  TIP3      2645            0.0000000000
     21402      2791  TIP3      H1             -3.5430926934      -22.1645268892      -34.0020511586  TIP3      2645            0.0000000000
     21403      2791  TIP3      H2             -5.0009040410      -22.3314740104      -33.5578878551  TIP3      2645            0.0000000000
     21404      2792  TIP3      OH2             6.4446130927      -25.4301972752      -28.9788324065  TIP3      2646            0.0000000000
     21405      2792  TIP3      H1              6.0363305528      -24.5713075103      -29.2210620584  TIP3      2646            0.0000000000
     21406      2792  TIP3      H2              6.4171346989      -25.3624545953      -28.0107298457  TIP3      2646            0.0000000000
     21407      2793  TIP3      OH2            -6.6616593858      -26.6413238850      -30.2620440597  TIP3      2647            0.0000000000
     21408      2793  TIP3      H1             -6.9565975975      -26.0864700859      -31.0372858367  TIP3      2647            0.0000000000
     21409      2793  TIP3      H2             -7.4610663397      -26.6231240023      -29.6994410603  TIP3      2647            0.0000000000
     21410      2794  TIP3      OH2            -0.2549966976      -17.5481656769      -36.6864761916  TIP3      2648            0.0000000000
     21411      2794  TIP3      H1             -0.3808705273      -17.5341996888      -37.6521986984  TIP3      2648            0.0000000000
     21412      2794  TIP3      H2             -0.7412419718      -16.7239316930      -36.4488618846  TIP3      2648            0.0000000000
     21413      2795  TIP3      OH2            -3.8774866370      -18.9165744427      -29.8028456988  TIP3      2649            0.0000000000
     21414      2795  TIP3      H1             -4.6436271436      -18.3856287960      -29.5107693187  TIP3      2649            0.0000000000
     21415      2795  TIP3      H2             -3.6069417603      -18.4093440440      -30.5903092637  TIP3      2649            0.0000000000
     21416      2796  TIP3      OH2             3.5953445081      -26.5623235888      -32.8394927164  TIP3      2650            0.0000000000
     21417      2796  TIP3      H1              2.7860160418      -26.7001393990      -32.3032298424  TIP3      2650            0.0000000000
     21418      2796  TIP3      H2              3.9194320890      -25.6978200139      -32.5114861267  TIP3      2650            0.0000000000
     21419      2797  TIP3      OH2            -7.2342319677      -25.0278805405      -32.2906275109  TIP3      2651            0.0000000000
     21420      2797  TIP3      H1             -7.0526602854      -24.0684760555      -32.3239624981  TIP3      2651            0.0000000000
     21421      2797  TIP3      H2             -6.7997486636      -25.3268399662      -33.1241761154  TIP3      2651            0.0000000000
     21422      2798  TIP3      OH2            -6.1946523824      -17.0764451209      -29.0335324971  TIP3      2652            0.0000000000
     21423      2798  TIP3      H1             -6.2733739721      -16.1344541381      -29.2890016215  TIP3      2652            0.0000000000
     21424      2798  TIP3      H2             -7.0621910203      -17.2415729672      -28.6227288416  TIP3      2652            0.0000000000
     21425      2799  TIP3      OH2           -10.3142165659      -17.7071541031      -38.3821104605  TIP3      2653            0.0000000000
     21426      2799  TIP3      H1            -10.2457449713      -17.2763174496      -39.2581065235  TIP3      2653            0.0000000000
     21427      2799  TIP3      H2            -10.3039697823      -16.9429589289      -37.7809440643  TIP3      2653            0.0000000000
     21428      2800  TIP3      OH2             3.5422569880      -16.0047697496      -31.5580316028  TIP3      2654            0.0000000000
     21429      2800  TIP3      H1              2.6019476562      -15.7921265142      -31.3652181932  TIP3      2654            0.0000000000
     21430      2800  TIP3      H2              3.7706804428      -15.1952391263      -32.0476717812  TIP3      2654            0.0000000000
     21431      2801  TIP3      OH2             4.2703262720      -27.8078104176      -29.8006469554  TIP3      2655            0.0000000000
     21432      2801  TIP3      H1              3.4633951950      -27.7421003493      -30.3415339917  TIP3      2655            0.0000000000
     21433      2801  TIP3      H2              4.9705917450      -27.6865107078      -30.4805181607  TIP3      2655            0.0000000000
     21434      2802  TIP3      OH2            -3.5623951408      -30.0701138040      -33.3677741059  TIP3      2656            0.0000000000
     21435      2802  TIP3      H1             -3.2031706316      -30.5518459046      -32.6160737555  TIP3      2656            0.0000000000
     21436      2802  TIP3      H2             -4.2694295644      -29.5309142921      -32.9498035921  TIP3      2656            0.0000000000
     21437      2803  TIP3      OH2             1.9541067412      -14.1652633900      -35.2767836785  TIP3      2657            0.0000000000
     21438      2803  TIP3      H1              2.2101158972      -14.9955326769      -35.7312657341  TIP3      2657            0.0000000000
     21439      2803  TIP3      H2              2.7583190490      -13.6085670622      -35.4047238809  TIP3      2657            0.0000000000
     21440      2804  TIP3      OH2             2.9846174646      -16.4483966389      -36.5850943817  TIP3      2658            0.0000000000
     21441      2804  TIP3      H1              2.8685430977      -17.1690009359      -37.2308075144  TIP3      2658            0.0000000000
     21442      2804  TIP3      H2              2.8983256360      -16.9331575749      -35.7421411120  TIP3      2658            0.0000000000
     21443      2805  TIP3      OH2             4.4919064297      -17.6085975723      -28.2011678924  TIP3      2659            0.0000000000
     21444      2805  TIP3      H1              4.4541421009      -18.3433821792      -28.8538866220  TIP3      2659            0.0000000000
     21445      2805  TIP3      H2              4.6178879092      -16.8265383259      -28.7818626456  TIP3      2659            0.0000000000
     21446      2806  TIP3      OH2            -0.6161389301      -20.5235543620      -38.1234864331  TIP3      2660            0.0000000000
     21447      2806  TIP3      H1             -1.4649317122      -20.0760082893      -38.3567251868  TIP3      2660            0.0000000000
     21448      2806  TIP3      H2              0.0207374619      -19.8202544126      -38.3235518191  TIP3      2660            0.0000000000
     21449      2807  TIP3      OH2            -1.0478145596      -22.0307117001      -40.6039561789  TIP3      2661            0.0000000000
     21450      2807  TIP3      H1             -0.2986902633      -21.7580474810      -40.0384957806  TIP3      2661            0.0000000000
     21451      2807  TIP3      H2             -0.6341907753      -22.7187348327      -41.1409633474  TIP3      2661            0.0000000000
     21452      2808  TIP3      OH2             6.5506100223      -21.1345991125      -29.9829596570  TIP3      2662            0.0000000000
     21453      2808  TIP3      H1              5.8003639345      -20.5396619159      -30.2207043368  TIP3      2662            0.0000000000
     21454      2808  TIP3      H2              7.1855758704      -20.8994379454      -30.6957350547  TIP3      2662            0.0000000000
     21455      2809  TIP3      OH2             2.7125955690      -20.7321302798      -36.9384858678  TIP3      2663            0.0000000000
     21456      2809  TIP3      H1              1.9741821627      -20.5339204979      -36.3099647566  TIP3      2663            0.0000000000
     21457      2809  TIP3      H2              3.3884982892      -21.1300066696      -36.3621566192  TIP3      2663            0.0000000000
     21458      2810  TIP3      OH2             2.6394127532      -22.2739531440      -28.1517129725  TIP3      2664            0.0000000000
     21459      2810  TIP3      H1              2.3726608216      -21.5723937923      -27.5316589493  TIP3      2664            0.0000000000
     21460      2810  TIP3      H2              1.9780555027      -22.1209990117      -28.8584495945  TIP3      2664            0.0000000000
     21461      2811  TIP3      OH2            -5.6582713758      -19.6469187770      -35.1559911443  TIP3      2665            0.0000000000
     21462      2811  TIP3      H1             -5.8370457373      -19.8767903385      -36.0779048249  TIP3      2665            0.0000000000
     21463      2811  TIP3      H2             -5.4895788319      -20.5177826109      -34.7407104682  TIP3      2665            0.0000000000
     21464      2812  TIP3      OH2            -4.6762604393      -16.7316829823      -32.6968280296  TIP3      2666            0.0000000000
     21465      2812  TIP3      H1             -4.6480969802      -16.9442330374      -33.6422336165  TIP3      2666            0.0000000000
     21466      2812  TIP3      H2             -3.7742847310      -16.9689132486      -32.3908513903  TIP3      2666            0.0000000000
     21467      2813  TIP3      OH2            -5.4303292087      -20.8762590905      -31.2043255019  TIP3      2667            0.0000000000
     21468      2813  TIP3      H1             -5.4346241264      -20.9195860559      -32.1833487976  TIP3      2667            0.0000000000
     21469      2813  TIP3      H2             -4.5994710308      -20.4088264798      -31.0095455833  TIP3      2667            0.0000000000
     21470      2814  TIP3      OH2             0.9346600853      -15.4009814191      -31.0451350519  TIP3      2668            0.0000000000
     21471      2814  TIP3      H1              0.7583835515      -14.6922008233      -30.3936545086  TIP3      2668            0.0000000000
     21472      2814  TIP3      H2              0.4483882444      -16.1340605175      -30.6169148402  TIP3      2668            0.0000000000
     21473      2815  TIP3      OH2            -3.8979152686      -16.4519342567      -27.5654423438  TIP3      2669            0.0000000000
     21474      2815  TIP3      H1             -4.4469168304      -15.8873888429      -26.9855596848  TIP3      2669            0.0000000000
     21475      2815  TIP3      H2             -4.6267050582      -16.8558962671      -28.0778927179  TIP3      2669            0.0000000000
     21476      2816  TIP3      OH2             1.7584254672      -21.7041515157      -39.3941230459  TIP3      2670            0.0000000000
     21477      2816  TIP3      H1              2.1022106286      -21.3758769895      -38.5353244791  TIP3      2670            0.0000000000
     21478      2816  TIP3      H2              2.0605479013      -21.0195620975      -40.0388065476  TIP3      2670            0.0000000000
     21479      2817  TIP3      OH2            -7.7115872369      -20.6747257818      -27.6970670666  TIP3      2671            0.0000000000
     21480      2817  TIP3      H1             -7.4775037945      -20.1355643254      -26.9154372156  TIP3      2671            0.0000000000
     21481      2817  TIP3      H2             -8.4562309162      -21.1938997392      -27.3607617436  TIP3      2671            0.0000000000
     21482      2818  TIP3      OH2            -1.4692310261      -15.1596047765      -36.5813843785  TIP3      2672            0.0000000000
     21483      2818  TIP3      H1             -1.4351920485      -14.2177377924      -36.3801773833  TIP3      2672            0.0000000000
     21484      2818  TIP3      H2             -1.6810158594      -15.1230172043      -37.5395931227  TIP3      2672            0.0000000000
     21485      2819  TIP3      OH2            -5.9119478662      -15.0761141900      -26.5117779491  TIP3      2673            0.0000000000
     21486      2819  TIP3      H1             -6.2520793747      -14.5548450445      -27.2584015627  TIP3      2673            0.0000000000
     21487      2819  TIP3      H2             -6.7083442273      -15.5443704910      -26.2042757933  TIP3      2673            0.0000000000
     21488      2820  TIP3      OH2             5.3194130134      -29.8202427453      -39.2327539041  TIP3      2674            0.0000000000
     21489      2820  TIP3      H1              4.4432077950      -29.7676156247      -39.6463796043  TIP3      2674            0.0000000000
     21490      2820  TIP3      H2              5.6402532149      -28.9077137045      -39.3641120861  TIP3      2674            0.0000000000
     21491      2821  TIP3      OH2            -6.7782097264      -21.1742780380      -38.2503079958  TIP3      2675            0.0000000000
     21492      2821  TIP3      H1             -7.3814272195      -20.4704255206      -38.5766891606  TIP3      2675            0.0000000000
     21493      2821  TIP3      H2             -7.4084747484      -21.8473490962      -37.9643184627  TIP3      2675            0.0000000000
     21494      2822  TIP3      OH2             6.0673214253      -15.2355186025      -41.5061036188  TIP3      2676            0.0000000000
     21495      2822  TIP3      H1              6.3090230256      -14.3430567535      -41.1893483662  TIP3      2676            0.0000000000
     21496      2822  TIP3      H2              6.9235792841      -15.7026403766      -41.3866553008  TIP3      2676            0.0000000000
     21497      2823  TIP3      OH2           -10.2150213749      -18.4573051883      -29.3733474442  TIP3      2677            0.0000000000
     21498      2823  TIP3      H1            -10.4677876090      -18.8467556916      -30.2302795819  TIP3      2677            0.0000000000
     21499      2823  TIP3      H2            -10.1830858811      -19.2784389596      -28.8453627377  TIP3      2677            0.0000000000
     21500      2824  TIP3      OH2           -10.8277409142      -15.8049109542      -32.6172285654  TIP3      2678            0.0000000000
     21501      2824  TIP3      H1             -9.9117952916      -16.1001581590      -32.4924845939  TIP3      2678            0.0000000000
     21502      2824  TIP3      H2            -10.9505193110      -15.2165543335      -31.8576822015  TIP3      2678            0.0000000000
     21503      2825  TIP3      OH2             7.3132820222      -15.2479813392      -26.8959693519  TIP3      2679            0.0000000000
     21504      2825  TIP3      H1              7.0284665099      -16.1664068492      -27.0228779948  TIP3      2679            0.0000000000
     21505      2825  TIP3      H2              6.4426530444      -14.8552335752      -26.6496928397  TIP3      2679            0.0000000000
     21506      2826  TIP3      OH2            -1.3543279974      -15.8408442677      -27.7621609900  TIP3      2680            0.0000000000
     21507      2826  TIP3      H1             -1.5527926411      -15.0513987835      -27.2212867573  TIP3      2680            0.0000000000
     21508      2826  TIP3      H2             -2.2412684485      -16.2695999079      -27.7921399923  TIP3      2680            0.0000000000
     21509      2827  TIP3      OH2            -1.4522122358      -11.7957632053      -37.9203357923  TIP3      2681            0.0000000000
     21510      2827  TIP3      H1             -1.5213494909      -11.4914410192      -38.8471512192  TIP3      2681            0.0000000000
     21511      2827  TIP3      H2             -1.3239695092      -10.9375811653      -37.4528093506  TIP3      2681            0.0000000000
     21512      2828  TIP3      OH2            -7.5625410809      -13.0474157209      -35.7900805520  TIP3      2682            0.0000000000
     21513      2828  TIP3      H1             -7.3563655882      -13.3180548581      -34.8640593749  TIP3      2682            0.0000000000
     21514      2828  TIP3      H2             -8.4248274624      -13.4931768075      -35.9634944673  TIP3      2682            0.0000000000
     21515      2829  TIP3      OH2             1.7900437704      -12.3783141616      -40.8116721737  TIP3      2683            0.0000000000
     21516      2829  TIP3      H1              2.1629645249      -13.2074549610      -41.1524593408  TIP3      2683            0.0000000000
     21517      2829  TIP3      H2              1.7067201103      -12.5950047818      -39.8607417829  TIP3      2683            0.0000000000
     21518      2830  TIP3      OH2             1.3513912719      -12.6324885870      -38.1576670920  TIP3      2684            0.0000000000
     21519      2830  TIP3      H1              0.4133968280      -12.3642447699      -38.1910171238  TIP3      2684            0.0000000000
     21520      2830  TIP3      H2              1.3310915825      -13.3360237394      -37.4802158115  TIP3      2684            0.0000000000
     21521      2831  TIP3      OH2             4.0237113699      -23.5185438719      -25.9324753126  TIP3      2685            0.0000000000
     21522      2831  TIP3      H1              3.5027999778      -23.1604251762      -26.6730345316  TIP3      2685            0.0000000000
     21523      2831  TIP3      H2              3.8576542170      -24.4724577649      -25.9907643061  TIP3      2685            0.0000000000
     21524      2832  TIP3      OH2            -8.5477115648      -17.2934490726      -27.5359016884  TIP3      2686            0.0000000000
     21525      2832  TIP3      H1             -8.0689349701      -17.6650251759      -26.7617287157  TIP3      2686            0.0000000000
     21526      2832  TIP3      H2             -8.8427107800      -18.1097408527      -27.9990226512  TIP3      2686            0.0000000000
     21527      2833  TIP3      OH2            -5.6146946450      -28.5316499994      -32.0877402251  TIP3      2687            0.0000000000
     21528      2833  TIP3      H1             -6.4197705348      -28.8355251160      -32.5519891678  TIP3      2687            0.0000000000
     21529      2833  TIP3      H2             -5.9698645576      -27.8089598707      -31.5436843281  TIP3      2687            0.0000000000
     21530      2834  TIP3      OH2            -1.3714742825      -28.5150343134      -28.0005608848  TIP3      2688            0.0000000000
     21531      2834  TIP3      H1             -0.8869224675      -29.1373598128      -28.5773268246  TIP3      2688            0.0000000000
     21532      2834  TIP3      H2             -2.2620290993      -28.5892145892      -28.3927424222  TIP3      2688            0.0000000000
     21533      2835  TIP3      OH2             1.6558289886      -24.8692750290      -27.9222444656  TIP3      2689            0.0000000000
     21534      2835  TIP3      H1              1.3837235697      -25.3245111539      -27.0865983642  TIP3      2689            0.0000000000
     21535      2835  TIP3      H2              1.5504237501      -23.9309717718      -27.6848327916  TIP3      2689            0.0000000000
     21536      2836  TIP3      OH2             2.4456129263      -19.9683163763      -41.4154425977  TIP3      2690            0.0000000000
     21537      2836  TIP3      H1              2.4096892143      -20.1303875535      -42.3655730334  TIP3      2690            0.0000000000
     21538      2836  TIP3      H2              2.3720024801      -18.9993006431      -41.3581564473  TIP3      2690            0.0000000000
     21539      2837  TIP3      OH2            -1.1608457393      -26.4914025943      -41.1891684303  TIP3      2691            0.0000000000
     21540      2837  TIP3      H1             -1.4730496655      -26.4074464173      -40.2764852787  TIP3      2691            0.0000000000
     21541      2837  TIP3      H2             -1.4190855025      -27.4049329480      -41.4248336296  TIP3      2691            0.0000000000
     21542      2838  TIP3      OH2            -5.5613333274      -23.4331724450      -30.5093542273  TIP3      2692            0.0000000000
     21543      2838  TIP3      H1             -6.5065217681      -23.4494384242      -30.2766604420  TIP3      2692            0.0000000000
     21544      2838  TIP3      H2             -5.4253240855      -22.4731449175      -30.6908492171  TIP3      2692            0.0000000000
     21545      2839  TIP3      OH2            -5.6833813998      -23.9059087543      -35.9068692641  TIP3      2693            0.0000000000
     21546      2839  TIP3      H1             -6.2217379578      -23.1032638895      -35.9133133828  TIP3      2693            0.0000000000
     21547      2839  TIP3      H2             -5.5616097933      -24.1121605646      -36.8585413844  TIP3      2693            0.0000000000
     21548      2840  TIP3      OH2            -0.3392874848      -23.1057668337      -37.3783471126  TIP3      2694            0.0000000000
     21549      2840  TIP3      H1             -0.3831969906      -22.1638298097      -37.6485802975  TIP3      2694            0.0000000000
     21550      2840  TIP3      H2              0.4365386215      -23.4405791066      -37.8637336714  TIP3      2694            0.0000000000
     21551      2841  TIP3      OH2            -1.3458098000      -22.6952317374      -25.3862367586  TIP3      2695            0.0000000000
     21552      2841  TIP3      H1             -1.5622146977      -23.6072011946      -25.0982523271  TIP3      2695            0.0000000000
     21553      2841  TIP3      H2             -0.6473367614      -22.4634378437      -24.7491531318  TIP3      2695            0.0000000000
     21554      2842  TIP3      OH2             1.2612536535      -23.2766355451      -33.9819837324  TIP3      2696            0.0000000000
     21555      2842  TIP3      H1              0.6505457050      -22.6865601293      -34.4496240962  TIP3      2696            0.0000000000
     21556      2842  TIP3      H2              0.9864318219      -24.1101454597      -34.4282743195  TIP3      2696            0.0000000000
     21557      2843  TIP3      OH2            -8.0939483636      -23.5062030292      -29.4468659044  TIP3      2697            0.0000000000
     21558      2843  TIP3      H1             -7.7096610271      -23.2516819587      -28.6009637417  TIP3      2697            0.0000000000
     21559      2843  TIP3      H2             -8.4676714859      -24.3853467026      -29.2651391178  TIP3      2697            0.0000000000
     21560      2844  TIP3      OH2            -4.7532729994      -25.9876505712      -41.9895144369  TIP3      2698            0.0000000000
     21561      2844  TIP3      H1             -5.2045875926      -25.9352381958      -41.1297261366  TIP3      2698            0.0000000000
     21562      2844  TIP3      H2             -4.6742389969      -25.0627983206      -42.2717374189  TIP3      2698            0.0000000000
     21563      2845  TIP3      OH2           -11.7947247105      -26.3221317903      -34.9584771929  TIP3      2699            0.0000000000
     21564      2845  TIP3      H1            -11.0261125451      -26.0170123919      -34.4351849832  TIP3      2699            0.0000000000
     21565      2845  TIP3      H2            -11.4786234641      -26.1826016694      -35.8613153444  TIP3      2699            0.0000000000
     21566      2846  TIP3      OH2           -10.1195077084      -26.0268774617      -39.3447577434  TIP3      2700            0.0000000000
     21567      2846  TIP3      H1             -9.5207793457      -25.6982106438      -40.0350360496  TIP3      2700            0.0000000000
     21568      2846  TIP3      H2            -10.8128703463      -25.3423670073      -39.3945234630  TIP3      2700            0.0000000000
     21569      2847  TIP3      OH2             0.0564555041      -22.6633629958      -29.5669629517  TIP3      2701            0.0000000000
     21570      2847  TIP3      H1              0.5052591169      -23.3817174226      -30.0773392513  TIP3      2701            0.0000000000
     21571      2847  TIP3      H2             -0.5950468110      -23.1800752455      -29.0469242181  TIP3      2701            0.0000000000
     21572      2848  TIP3      OH2            -3.1190354511      -26.4232614425      -35.1035937472  TIP3      2702            0.0000000000
     21573      2848  TIP3      H1             -4.0713701370      -26.3750350534      -34.9040363844  TIP3      2702            0.0000000000
     21574      2848  TIP3      H2             -2.7289171829      -25.9099926693      -34.3753569518  TIP3      2702            0.0000000000
     21575      2849  TIP3      OH2            -8.8800227569      -25.0271347236      -35.7021929320  TIP3      2703            0.0000000000
     21576      2849  TIP3      H1             -9.5998297637      -24.7345561363      -36.3072168864  TIP3      2703            0.0000000000
     21577      2849  TIP3      H2             -8.3195593851      -25.5545041261      -36.3012522109  TIP3      2703            0.0000000000
     21578      2850  TIP3      OH2            -4.9255488151      -24.2758902860      -38.4568797739  TIP3      2704            0.0000000000
     21579      2850  TIP3      H1             -3.9878533085      -24.0697035129      -38.2772104533  TIP3      2704            0.0000000000
     21580      2850  TIP3      H2             -5.1822286600      -23.6193630302      -39.1493519317  TIP3      2704            0.0000000000
     21581      2851  TIP3      OH2             1.3462811539      -27.0952919959      -31.4744972091  TIP3      2705            0.0000000000
     21582      2851  TIP3      H1              0.8821195445      -26.9866647616      -30.6052567423  TIP3      2705            0.0000000000
     21583      2851  TIP3      H2              0.6373071086      -27.5782744151      -31.9478270654  TIP3      2705            0.0000000000
     21584      2852  TIP3      OH2            -5.6047835452      -22.8087631554      -40.5386997283  TIP3      2706            0.0000000000
     21585      2852  TIP3      H1             -6.0340655022      -23.2107203130      -41.2971624863  TIP3      2706            0.0000000000
     21586      2852  TIP3      H2             -4.7323143867      -22.5545468801      -40.9199022979  TIP3      2706            0.0000000000
     21587      2853  TIP3      OH2             4.2187774261      -11.2232446213      -25.0461317215  TIP3      2707            0.0000000000
     21588      2853  TIP3      H1              4.4314717543      -10.7458566304      -25.8671701000  TIP3      2707            0.0000000000
     21589      2853  TIP3      H2              5.0628481723      -11.1475594234      -24.5765683111  TIP3      2707            0.0000000000
     21590      2854  TIP3      OH2            -7.4337835358      -19.0294931452      -25.4984307236  TIP3      2708            0.0000000000
     21591      2854  TIP3      H1             -6.8678217953      -18.8430795832      -24.7257489601  TIP3      2708            0.0000000000
     21592      2854  TIP3      H2             -8.2948623785      -19.2016253773      -25.0536688228  TIP3      2708            0.0000000000
     21593      2855  TIP3      OH2            -1.7259402513      -23.4988696487      -33.0292306015  TIP3      2709            0.0000000000
     21594      2855  TIP3      H1             -1.2050919167      -24.3066873230      -33.1953168432  TIP3      2709            0.0000000000
     21595      2855  TIP3      H2             -2.4949463663      -23.8233437444      -32.5270499069  TIP3      2709            0.0000000000
     21596      2856  TIP3      OH2            -7.3158812153      -27.0761610257      -36.6801143577  TIP3      2710            0.0000000000
     21597      2856  TIP3      H1             -7.8913763287      -27.8108392732      -36.3508946969  TIP3      2710            0.0000000000
     21598      2856  TIP3      H2             -6.6264995774      -27.5651338349      -37.1546471312  TIP3      2710            0.0000000000
     21599      2857  TIP3      OH2            -3.3501145013      -24.8406844091      -30.4305423777  TIP3      2711            0.0000000000
     21600      2857  TIP3      H1             -4.1863521983      -24.3062952369      -30.4101976327  TIP3      2711            0.0000000000
     21601      2857  TIP3      H2             -2.7642351157      -24.3088369003      -29.8700348900  TIP3      2711            0.0000000000
     21602      2858  TIP3      OH2            -2.6860759372      -18.6899887287      -38.5865596017  TIP3      2712            0.0000000000
     21603      2858  TIP3      H1             -3.4402658774      -19.1320437030      -39.0333264529  TIP3      2712            0.0000000000
     21604      2858  TIP3      H2             -3.0751516706      -18.4285978028      -37.7194303158  TIP3      2712            0.0000000000
     21605      2859  TIP3      OH2             4.6064013287      -19.3749123455      -30.2772952198  TIP3      2713            0.0000000000
     21606      2859  TIP3      H1              5.0576204200      -18.8168145262      -30.9556006760  TIP3      2713            0.0000000000
     21607      2859  TIP3      H2              3.7349733882      -19.5147889620      -30.6991066209  TIP3      2713            0.0000000000
     21608      2860  TIP3      OH2             1.6226781442      -25.9059255713      -41.0309940782  TIP3      2714            0.0000000000
     21609      2860  TIP3      H1              0.6752964360      -26.0160760833      -41.2345887420  TIP3      2714            0.0000000000
     21610      2860  TIP3      H2              1.5984473887      -25.3984311572      -40.1935380378  TIP3      2714            0.0000000000
     21611      2861  TIP3      OH2            -0.9040588661      -18.5454095093      -26.8513783048  TIP3      2715            0.0000000000
     21612      2861  TIP3      H1             -0.9581011557      -18.9053222100      -25.9400252697  TIP3      2715            0.0000000000
     21613      2861  TIP3      H2             -1.0890429343      -17.5955676582      -26.7557779677  TIP3      2715            0.0000000000
     21614      2862  TIP3      OH2             1.7681167377      -24.2531099290      -38.6962095132  TIP3      2716            0.0000000000
     21615      2862  TIP3      H1              2.5622182412      -24.1396688370      -38.1350849556  TIP3      2716            0.0000000000
     21616      2862  TIP3      H2              1.8505243564      -23.4304152407      -39.2270639955  TIP3      2716            0.0000000000
     21617      2863  TIP3      OH2            -7.9688079869      -19.0253065948      -33.4621882888  TIP3      2717            0.0000000000
     21618      2863  TIP3      H1             -7.2241459199      -19.0419955347      -34.0870743224  TIP3      2717            0.0000000000
     21619      2863  TIP3      H2             -7.9479255423      -19.9833406461      -33.2354037795  TIP3      2717            0.0000000000
     21620      2864  TIP3      OH2            -0.6495145369      -17.2845675086      -39.6930482768  TIP3      2718            0.0000000000
     21621      2864  TIP3      H1             -1.1481351921      -16.4366635735      -39.6292915003  TIP3      2718            0.0000000000
     21622      2864  TIP3      H2             -1.3610737094      -17.9565003701      -39.6729364456  TIP3      2718            0.0000000000
     21623      2865  TIP3      OH2           -10.7148358191      -20.9094645077      -27.6917816852  TIP3      2719            0.0000000000
     21624      2865  TIP3      H1            -11.1231028305      -21.4916801237      -27.0118000514  TIP3      2719            0.0000000000
     21625      2865  TIP3      H2            -11.1340081604      -21.2919579661      -28.4800195222  TIP3      2719            0.0000000000
     21626      2866  TIP3      OH2            -3.7778868034      -21.3642111161      -25.5874077731  TIP3      2720            0.0000000000
     21627      2866  TIP3      H1             -3.9650166261      -21.9988499610      -26.2902503758  TIP3      2720            0.0000000000
     21628      2866  TIP3      H2             -2.9476593416      -21.7384954980      -25.2397492420  TIP3      2720            0.0000000000
     21629      2867  TIP3      OH2             1.3017013328      -15.8854483275      -27.4371606528  TIP3      2721            0.0000000000
     21630      2867  TIP3      H1              0.4173798408      -15.9011759727      -27.8720540020  TIP3      2721            0.0000000000
     21631      2867  TIP3      H2              1.0248849455      -15.5975529867      -26.5510160578  TIP3      2721            0.0000000000
     21632      2868  TIP3      OH2             6.9585711256      -23.6872795232      -39.4297111712  TIP3      2722            0.0000000000
     21633      2868  TIP3      H1              6.0989876416      -23.9352683424      -39.7952751205  TIP3      2722            0.0000000000
     21634      2868  TIP3      H2              6.9836190801      -22.7203834865      -39.6121432681  TIP3      2722            0.0000000000
     21635      2869  TIP3      OH2             6.7908247310      -18.0155997139      -26.8179608729  TIP3      2723            0.0000000000
     21636      2869  TIP3      H1              5.9542204865      -17.8422499419      -27.3079234385  TIP3      2723            0.0000000000
     21637      2869  TIP3      H2              7.4115682889      -18.2430548896      -27.5472002208  TIP3      2723            0.0000000000
     21638      2870  TIP3      OH2             4.9012042173      -15.1225980163      -38.9925059158  TIP3      2724            0.0000000000
     21639      2870  TIP3      H1              4.6302442137      -15.9709399781      -38.6232976222  TIP3      2724            0.0000000000
     21640      2870  TIP3      H2              5.2341696737      -15.3432113278      -39.8837291284  TIP3      2724            0.0000000000
     21641      2871  TIP3      OH2             2.2307709919      -19.9447786886      -31.7727278747  TIP3      2725            0.0000000000
     21642      2871  TIP3      H1              1.3323167464      -20.0952358656      -32.0983911942  TIP3      2725            0.0000000000
     21643      2871  TIP3      H2              2.7578032435      -20.5018118762      -32.3830389697  TIP3      2725            0.0000000000
     21644      2872  TIP3      OH2            -5.4715277942      -15.9977154419      -35.2832353826  TIP3      2726            0.0000000000
     21645      2872  TIP3      H1             -5.1552466513      -15.1069511828      -35.5383256588  TIP3      2726            0.0000000000
     21646      2872  TIP3      H2             -6.3603482403      -16.0029884853      -35.6615346282  TIP3      2726            0.0000000000
     21647      2873  TIP3      OH2            -9.3143821108      -21.0083462230      -41.4890636267  TIP3      2727            0.0000000000
     21648      2873  TIP3      H1             -8.8493322612      -20.7505001536      -40.6724982552  TIP3      2727            0.0000000000
     21649      2873  TIP3      H2            -10.2293457804      -21.1154611640      -41.1632010775  TIP3      2727            0.0000000000
     21650      2874  TIP3      OH2            -3.6351793327      -18.0928923668      -36.0533615781  TIP3      2728            0.0000000000
     21651      2874  TIP3      H1             -4.1439630434      -17.2755828412      -35.9165836834  TIP3      2728            0.0000000000
     21652      2874  TIP3      H2             -4.1071305917      -18.7316572654      -35.4852423138  TIP3      2728            0.0000000000
     21653      2875  TIP3      OH2            -3.3849150520      -13.7790524926      -29.1922622202  TIP3      2729            0.0000000000
     21654      2875  TIP3      H1             -2.5594479064      -13.3457095542      -29.4790212296  TIP3      2729            0.0000000000
     21655      2875  TIP3      H2             -3.0617845822      -14.2938796471      -28.4300612494  TIP3      2729            0.0000000000
     21656      2876  TIP3      OH2            -4.9853334465      -13.3524553164      -36.5561410026  TIP3      2730            0.0000000000
     21657      2876  TIP3      H1             -5.9589881921      -13.2603575214      -36.4468983697  TIP3      2730            0.0000000000
     21658      2876  TIP3      H2             -4.7234508033      -12.4635556589      -36.2544718718  TIP3      2730            0.0000000000
     21659      2877  TIP3      OH2            -0.3051258815      -17.7799241915      -30.0725540170  TIP3      2731            0.0000000000
     21660      2877  TIP3      H1             -0.5466412108      -17.9666612406      -29.1463824959  TIP3      2731            0.0000000000
     21661      2877  TIP3      H2              0.1034190369      -18.6201798230      -30.3539085491  TIP3      2731            0.0000000000
     21662      2878  TIP3      OH2             2.3981319785      -17.0179566175      -40.7088101633  TIP3      2732            0.0000000000
     21663      2878  TIP3      H1              2.6177608278      -17.3353956608      -39.8014014817  TIP3      2732            0.0000000000
     21664      2878  TIP3      H2              1.4532185694      -17.2538675212      -40.7506084368  TIP3      2732            0.0000000000
     21665      2879  TIP3      OH2             2.9157767693      -13.4497075368      -27.4716036701  TIP3      2733            0.0000000000
     21666      2879  TIP3      H1              2.2045103214      -14.1105366020      -27.6079654466  TIP3      2733            0.0000000000
     21667      2879  TIP3      H2              2.8900910005      -12.9676786340      -28.3286130287  TIP3      2733            0.0000000000
     21668      2880  TIP3      OH2             6.8347044561      -12.6563456564      -40.6733367585  TIP3      2734            0.0000000000
     21669      2880  TIP3      H1              7.5549248306      -11.9953725115      -40.6713346676  TIP3      2734            0.0000000000
     21670      2880  TIP3      H2              6.1208811577      -12.1192769461      -40.2577734360  TIP3      2734            0.0000000000
     21671      2881  TIP3      OH2            -8.9709000482      -26.5907261411      -28.5204849140  TIP3      2735            0.0000000000
     21672      2881  TIP3      H1             -9.3311172228      -26.0424049840      -27.7948504258  TIP3      2735            0.0000000000
     21673      2881  TIP3      H2             -9.0496657687      -27.4905101370      -28.1704810753  TIP3      2735            0.0000000000
     21674      2882  TIP3      OH2             3.2701151414      -18.4462104852      -38.4876759488  TIP3      2736            0.0000000000
     21675      2882  TIP3      H1              3.0966257640      -19.3396162228      -38.1298694402  TIP3      2736            0.0000000000
     21676      2882  TIP3      H2              4.2506110877      -18.4565326000      -38.5426067703  TIP3      2736            0.0000000000
     21677      2883  TIP3      OH2            -9.2350413329      -15.0179780589      -29.1985658053  TIP3      2737            0.0000000000
     21678      2883  TIP3      H1             -8.5224880678      -15.5943167150      -29.5155922270  TIP3      2737            0.0000000000
     21679      2883  TIP3      H2             -8.7641265538      -14.1800604334      -29.0373838982  TIP3      2737            0.0000000000
     21680      2884  TIP3      OH2            -4.6998507503      -16.3221401431      -39.9688298757  TIP3      2738            0.0000000000
     21681      2884  TIP3      H1             -3.9363188034      -16.7701464582      -39.5824074552  TIP3      2738            0.0000000000
     21682      2884  TIP3      H2             -4.5150542420      -15.3696401039      -39.8112109266  TIP3      2738            0.0000000000
     21683      2885  TIP3      OH2            -8.3058643302      -19.3359955735      -39.3792894866  TIP3      2739            0.0000000000
     21684      2885  TIP3      H1             -9.0668568161      -18.8409548241      -39.0080282736  TIP3      2739            0.0000000000
     21685      2885  TIP3      H2             -7.7510646284      -18.5994726525      -39.7070182254  TIP3      2739            0.0000000000
     21686      2886  TIP3      OH2             0.0264467774      -26.5611450881      -29.3132371086  TIP3      2740            0.0000000000
     21687      2886  TIP3      H1              0.5060240095      -25.8179592656      -28.8902378979  TIP3      2740            0.0000000000
     21688      2886  TIP3      H2             -0.3370050694      -27.0781165881      -28.5680219759  TIP3      2740            0.0000000000
     21689      2887  TIP3      OH2             0.4575638400      -26.6194943487      -38.0856729844  TIP3      2741            0.0000000000
     21690      2887  TIP3      H1              0.6548217388      -25.6798825610      -38.2812330205  TIP3      2741            0.0000000000
     21691      2887  TIP3      H2              0.1933105043      -26.5013805697      -37.1476939078  TIP3      2741            0.0000000000
     21692      2888  TIP3      OH2            -1.8372740922      -14.8662619334      -39.2554541441  TIP3      2742            0.0000000000
     21693      2888  TIP3      H1             -2.5679651598      -14.2256369044      -39.1686689977  TIP3      2742            0.0000000000
     21694      2888  TIP3      H2             -1.2707960201      -14.4578362418      -39.9513140313  TIP3      2742            0.0000000000
     21695      2889  TIP3      OH2            -2.2077568407      -24.9950873147      -37.6579323118  TIP3      2743            0.0000000000
     21696      2889  TIP3      H1             -1.5665389140      -24.2459511708      -37.6089127759  TIP3      2743            0.0000000000
     21697      2889  TIP3      H2             -2.0110801017      -25.4214150706      -36.8063814470  TIP3      2743            0.0000000000
     21698      2890  TIP3      OH2            -1.6661866655      -24.2423406155      -27.9659386415  TIP3      2744            0.0000000000
     21699      2890  TIP3      H1             -1.8750895439      -23.6239801161      -27.2387101441  TIP3      2744            0.0000000000
     21700      2890  TIP3      H2             -1.4429088669      -25.0436752766      -27.4692827917  TIP3      2744            0.0000000000
     21701      2891  TIP3      OH2            -1.6600586788      -28.3646560624      -36.5090474051  TIP3      2745            0.0000000000
     21702      2891  TIP3      H1             -2.0155344963      -27.5602718506      -36.0650799866  TIP3      2745            0.0000000000
     21703      2891  TIP3      H2             -0.7603248554      -28.3342207056      -36.1456843166  TIP3      2745            0.0000000000
     21704      2892  TIP3      OH2            -4.4238589194      -13.7518374479      -39.3293332786  TIP3      2746            0.0000000000
     21705      2892  TIP3      H1             -4.2423900891      -12.8821801023      -39.7504458768  TIP3      2746            0.0000000000
     21706      2892  TIP3      H2             -4.8499758081      -13.4664686084      -38.5009179278  TIP3      2746            0.0000000000
     21707      2893  TIP3      OH2            -6.1750431171      -26.8333826122      -39.6737111983  TIP3      2747            0.0000000000
     21708      2893  TIP3      H1             -6.2386938137      -26.1641088800      -38.9693433139  TIP3      2747            0.0000000000
     21709      2893  TIP3      H2             -5.2820945418      -27.1723904561      -39.4809503070  TIP3      2747            0.0000000000
     21710      2894  TIP3      OH2             4.0793804451      -26.0700044477      -27.4344585532  TIP3      2748            0.0000000000
     21711      2894  TIP3      H1              3.2706387132      -25.5781367524      -27.6638936172  TIP3      2748            0.0000000000
     21712      2894  TIP3      H2              4.3271494891      -26.4335875911      -28.3074360721  TIP3      2748            0.0000000000
     21713      2895  TIP3      OH2             3.4782503763      -21.8231940452      -33.3314811261  TIP3      2749            0.0000000000
     21714      2895  TIP3      H1              2.6053678110      -22.2572345743      -33.4916509153  TIP3      2749            0.0000000000
     21715      2895  TIP3      H2              3.9417143453      -22.5649337828      -32.8830105931  TIP3      2749            0.0000000000
     21716      2896  TIP3      OH2            -7.3011944697      -16.9399777966      -40.6499004450  TIP3      2750            0.0000000000
     21717      2896  TIP3      H1             -6.4935246140      -16.4656547640      -40.3595482114  TIP3      2750            0.0000000000
     21718      2896  TIP3      H2             -6.9022713644      -17.4243914291      -41.4095714085  TIP3      2750            0.0000000000
     21719      2897  TIP3      OH2            -9.1902979665      -23.7879087336      -41.5075418699  TIP3      2751            0.0000000000
     21720      2897  TIP3      H1             -8.9480864520      -22.8527073775      -41.4842678737  TIP3      2751            0.0000000000
     21721      2897  TIP3      H2             -9.8184137149      -23.8102355696      -42.2420698674  TIP3      2751            0.0000000000
     21722      2898  TIP3      OH2             4.1069302556      -13.2039920823      -31.9335561263  TIP3      2752            0.0000000000
     21723      2898  TIP3      H1              4.0286710561      -12.4911298906      -32.5959048955  TIP3      2752            0.0000000000
     21724      2898  TIP3      H2              5.0829045970      -13.2209750581      -31.8479315235  TIP3      2752            0.0000000000
     21725      2899  TIP3      OH2            -8.0020972910      -29.2261832992      -33.0143919380  TIP3      2753            0.0000000000
     21726      2899  TIP3      H1             -8.0770594059      -28.7352518880      -33.8511542847  TIP3      2753            0.0000000000
     21727      2899  TIP3      H2             -8.8928002355      -29.6379489446      -32.9317637122  TIP3      2753            0.0000000000
     21728      2900  TIP3      OH2            -9.6726030853      -14.6288738989      -36.6404259966  TIP3      2754            0.0000000000
     21729      2900  TIP3      H1            -10.5764620497      -14.3095354472      -36.5317777284  TIP3      2754            0.0000000000
     21730      2900  TIP3      H2             -9.5446028343      -14.3984622207      -37.5905977783  TIP3      2754            0.0000000000
     21731      2901  TIP3      OH2            -9.8344778001      -12.9199581747      -25.5532472135  TIP3      2755            0.0000000000
     21732      2901  TIP3      H1             -9.3800185301      -12.4417044017      -24.8325275894  TIP3      2755            0.0000000000
     21733      2901  TIP3      H2            -10.7598230282      -12.8561756162      -25.2645837933  TIP3      2755            0.0000000000
     21734      2902  TIP3      OH2            -5.5663774702      -13.1568434703      -24.5458158442  TIP3      2756            0.0000000000
     21735      2902  TIP3      H1             -4.7316390914      -13.4239542548      -24.1405311422  TIP3      2756            0.0000000000
     21736      2902  TIP3      H2             -5.7664177645      -13.9013022652      -25.1452933569  TIP3      2756            0.0000000000
     21737      2903  TIP3      OH2            -0.4588175584      -13.9270994047      -41.4540951900  TIP3      2757            0.0000000000
     21738      2903  TIP3      H1             -1.0338973564      -14.4954571840      -42.0159164947  TIP3      2757            0.0000000000
     21739      2903  TIP3      H2             -0.0345456631      -13.3971710706      -42.1566255199  TIP3      2757            0.0000000000
     21740      2904  TIP3      OH2             0.8151016220      -14.5090496236      -24.9908537616  TIP3      2758            0.0000000000
     21741      2904  TIP3      H1              0.6162117616      -15.4219085695      -24.6783182294  TIP3      2758            0.0000000000
     21742      2904  TIP3      H2              1.7753266121      -14.4791086587      -24.8779868011  TIP3      2758            0.0000000000
     21743      2905  TIP3      OH2             3.3754946787      -14.6679725686      -42.2156888751  TIP3      2759            0.0000000000
     21744      2905  TIP3      H1              3.0050407527      -15.2550749548      -41.5272142650  TIP3      2759            0.0000000000
     21745      2905  TIP3      H2              4.3235809226      -14.8584856603      -42.0576371535  TIP3      2759            0.0000000000
     21746      2906  TIP3      OH2            -9.9678843207      -19.1811253059      -24.7537237507  TIP3      2760            0.0000000000
     21747      2906  TIP3      H1            -10.8779150487      -19.4819205485      -24.5490625864  TIP3      2760            0.0000000000
     21748      2906  TIP3      H2            -10.1470002357      -18.2751134621      -25.0491007303  TIP3      2760            0.0000000000
     21749      2907  TIP3      OH2            -5.8634340312      -18.8277856271      -42.0476135102  TIP3      2761            0.0000000000
     21750      2907  TIP3      H1             -5.1362709234      -18.8066145770      -41.4001836178  TIP3      2761            0.0000000000
     21751      2907  TIP3      H2             -5.3256355919      -19.0592206014      -42.8409273905  TIP3      2761            0.0000000000
     21752      2908  TIP3      OH2            -3.3364008302      -18.7116637923      -24.9688386549  TIP3      2762            0.0000000000
     21753      2908  TIP3      H1             -3.5365233998      -18.2758956439      -25.8045427878  TIP3      2762            0.0000000000
     21754      2908  TIP3      H2             -3.5388897788      -19.6662190786      -25.1448260111  TIP3      2762            0.0000000000
     21755      2909  TIP3      OH2             1.9533065791      -18.6939329729      -27.8113458910  TIP3      2763            0.0000000000
     21756      2909  TIP3      H1              2.8066117376      -18.2138933854      -27.7556400293  TIP3      2763            0.0000000000
     21757      2909  TIP3      H2              1.3214166896      -17.9703977218      -27.6801219566  TIP3      2763            0.0000000000
     21758      2910  TIP3      OH2            -9.9596084451      -22.1413843299      -24.6547502219  TIP3      2764            0.0000000000
     21759      2910  TIP3      H1             -9.0843873268      -22.5442909358      -24.5615968772  TIP3      2764            0.0000000000
     21760      2910  TIP3      H2             -9.7908823491      -21.1815083257      -24.5646184666  TIP3      2764            0.0000000000
     21761      2911  TIP3      OH2            -4.5639467619      -20.1656238321      -39.9457671445  TIP3      2765            0.0000000000
     21762      2911  TIP3      H1             -5.2937716029      -20.6692245766      -39.5301488478  TIP3      2765            0.0000000000
     21763      2911  TIP3      H2             -4.2606013444      -20.7895106219      -40.6288178856  TIP3      2765            0.0000000000
     21764      2912  TIP3      OH2            -5.2938810777      -22.0470253577      -27.9841574792  TIP3      2766            0.0000000000
     21765      2912  TIP3      H1             -5.8254171005      -21.2424515357      -28.1264258398  TIP3      2766            0.0000000000
     21766      2912  TIP3      H2             -4.5968126283      -21.9331060199      -28.6721782645  TIP3      2766            0.0000000000
     21767      2913  TIP3      OH2            -3.4836065387      -21.9657593178      -41.8518304998  TIP3      2767            0.0000000000
     21768      2913  TIP3      H1             -3.3217799107      -21.6523355771      -42.7646424436  TIP3      2767            0.0000000000
     21769      2913  TIP3      H2             -2.5773123348      -21.9131527745      -41.4640112031  TIP3      2767            0.0000000000
     21770      2914  TIP3      OH2            -0.1857002021      -19.6901363153      -24.3624427952  TIP3      2768            0.0000000000
     21771      2914  TIP3      H1              0.5680531952      -20.0241084328      -24.8911333555  TIP3      2768            0.0000000000
     21772      2914  TIP3      H2             -0.3103477680      -20.4221385157      -23.7290695292  TIP3      2768            0.0000000000
     21773      2915  TIP3      OH2             5.8176974314      -19.3918308373       42.2387882826  TIP3      2769            0.0000000000
     21774      2915  TIP3      H1              5.1635330191      -19.8522974946       41.6993321944  TIP3      2769            0.0000000000
     21775      2915  TIP3      H2              5.4016084393      -18.5288191337       42.3634360842  TIP3      2769            0.0000000000
     21776      2916  TIP3      OH2            -4.9743829113      -24.3995869792      -26.8277918083  TIP3      2770            0.0000000000
     21777      2916  TIP3      H1             -4.7143408210      -25.0586311174      -27.5048065694  TIP3      2770            0.0000000000
     21778      2916  TIP3      H2             -5.0488845662      -23.5642021631      -27.3559834064  TIP3      2770            0.0000000000
     21779      2917  TIP3      OH2            -4.3853428568      -26.5379688147      -28.7193083821  TIP3      2771            0.0000000000
     21780      2917  TIP3      H1             -3.7637401055      -26.0953632522      -29.3397319521  TIP3      2771            0.0000000000
     21781      2917  TIP3      H2             -5.2076249973      -26.4846909382      -29.2594499252  TIP3      2771            0.0000000000
     21782      2918  TIP3      OH2            -3.0350796200      -21.3938044858      -29.2926552709  TIP3      2772            0.0000000000
     21783      2918  TIP3      H1             -2.1170567824      -21.3474688903      -28.9935447299  TIP3      2772            0.0000000000
     21784      2918  TIP3      H2             -3.2880881249      -20.4368723937      -29.2681789702  TIP3      2772            0.0000000000
     21785      2919  TIP3      OH2             2.3026222735      -20.5542161393      -25.8062543974  TIP3      2773            0.0000000000
     21786      2919  TIP3      H1              2.2721842859      -19.7984946964      -26.4284057669  TIP3      2773            0.0000000000
     21787      2919  TIP3      H2              3.2626731263      -20.6624152420      -25.6760072957  TIP3      2773            0.0000000000
     21788      2920  TIP3      OH2            -6.7243586705      -24.2195085097      -24.8066403261  TIP3      2774            0.0000000000
     21789      2920  TIP3      H1             -7.3230809800      -24.9513267226      -25.0554681107  TIP3      2774            0.0000000000
     21790      2920  TIP3      H2             -6.0380301850      -24.2649289111      -25.5112618861  TIP3      2774            0.0000000000
     21791      2921  TIP3      OH2            -3.9241510356      -29.2008970093      -28.6316153608  TIP3      2775            0.0000000000
     21792      2921  TIP3      H1             -4.2369271369      -28.3340131189      -28.9791112326  TIP3      2775            0.0000000000
     21793      2921  TIP3      H2             -4.3948895299      -29.2479420650      -27.7847423368  TIP3      2775            0.0000000000
     21794      2922  TIP3      OH2            -2.4956929227      -25.1553935472      -25.2463548144  TIP3      2776            0.0000000000
     21795      2922  TIP3      H1             -2.7871285736      -25.5366532341      -24.4041898103  TIP3      2776            0.0000000000
     21796      2922  TIP3      H2             -3.3077829237      -25.1675855808      -25.7764112554  TIP3      2776            0.0000000000
     21797      2923  TIP3      OH2             0.6437951913      -25.6612333553      -25.5603508138  TIP3      2777            0.0000000000
     21798      2923  TIP3      H1             -0.1527716481      -25.8516068879      -25.0326492771  TIP3      2777            0.0000000000
     21799      2923  TIP3      H2              1.3230228931      -25.6842723778      -24.8477616826  TIP3      2777            0.0000000000
     21800      2924  TIP3      OH2             2.5624889730      -26.6053242572      -23.8767482608  TIP3      2778            0.0000000000
     21801      2924  TIP3      H1              2.3675347791      -27.5584154452      -24.0497820769  TIP3      2778            0.0000000000
     21802      2924  TIP3      H2              1.9553839366      -26.4030814233      -23.1430974042  TIP3      2778            0.0000000000
     21803      2925  TIP3      OH2            -8.4872137406      -26.3907013289      -24.9135793981  TIP3      2779            0.0000000000
     21804      2925  TIP3      H1             -8.7090879638      -27.1794676814      -25.4460452960  TIP3      2779            0.0000000000
     21805      2925  TIP3      H2             -8.5764032309      -26.7795947125      -24.0033162406  TIP3      2779            0.0000000000
     21806      2926  TIP3      OH2            -3.6102898340      -29.7604275002      -25.8017883083  TIP3      2780            0.0000000000
     21807      2926  TIP3      H1             -2.9253702404      -30.3457758804      -25.4313745994  TIP3      2780            0.0000000000
     21808      2926  TIP3      H2             -3.1039534508      -29.1922229512      -26.4098902244  TIP3      2780            0.0000000000
     21809      2927  TIP3      OH2            -3.2190548228      -28.0761634097      -23.4694678911  TIP3      2781            0.0000000000
     21810      2927  TIP3      H1             -3.5857493243      -28.8277626541      -23.9523514498  TIP3      2781            0.0000000000
     21811      2927  TIP3      H2             -3.9313447504      -27.4025403733      -23.4814686554  TIP3      2781            0.0000000000
     21812      2928  TIP3      OH2            -4.0390337565      -11.4247731421      -40.5111632085  TIP3      2782            0.0000000000
     21813      2928  TIP3      H1             -3.5957555803      -10.5822563856      -40.3168319346  TIP3      2782            0.0000000000
     21814      2928  TIP3      H2             -3.8336293632      -11.5285247907      -41.4564193485  TIP3      2782            0.0000000000
     21815      2929  TIP3      OH2           -10.3522805438      -16.8887244253      -41.1756146197  TIP3      2783            0.0000000000
     21816      2929  TIP3      H1             -9.3806383315      -16.9500827810      -41.1065986186  TIP3      2783            0.0000000000
     21817      2929  TIP3      H2            -10.4711391528      -17.1034174877      -42.1207447212  TIP3      2783            0.0000000000
     21818      2930  TIP3      OH2           -11.0901316706      -11.7530915843      -36.1458456588  TIP3      2784            0.0000000000
     21819      2930  TIP3      H1            -11.9643016977      -12.1031364385      -36.4194022639  TIP3      2784            0.0000000000
     21820      2930  TIP3      H2            -10.8908946779      -12.3201854815      -35.3695677094  TIP3      2784            0.0000000000
     21821      2931  TIP3      OH2           -10.4051050852      -13.3454234324      -34.0513349847  TIP3      2785            0.0000000000
     21822      2931  TIP3      H1            -10.7308224547      -14.2334978145      -33.7922644952  TIP3      2785            0.0000000000
     21823      2931  TIP3      H2             -9.7642633691      -13.1689452447      -33.3277844412  TIP3      2785            0.0000000000
     21824      2932  TIP3      OH2             6.8491876235      -13.1387925199      -31.6831747333  TIP3      2786            0.0000000000
     21825      2932  TIP3      H1              7.1550080224      -12.7479488762      -30.8471363838  TIP3      2786            0.0000000000
     21826      2932  TIP3      H2              7.1307679453      -12.4693854307      -32.3226050084  TIP3      2786            0.0000000000
     21827      2933  TIP3      OH2             6.5546363872      -13.1696840301      -28.5428195646  TIP3      2787            0.0000000000
     21828      2933  TIP3      H1              6.1428742155      -13.9490894380      -28.9882143280  TIP3      2787            0.0000000000
     21829      2933  TIP3      H2              7.0293523470      -13.6209101772      -27.8159736621  TIP3      2787            0.0000000000
     21830      2934  TIP3      OH2             5.3452663226      -17.1997878539      -23.8763452087  TIP3      2788            0.0000000000
     21831      2934  TIP3      H1              4.4250437290      -17.4939728386      -23.7703649936  TIP3      2788            0.0000000000
     21832      2934  TIP3      H2              5.2754023234      -16.5543604022      -24.5980381131  TIP3      2788            0.0000000000
     21833      2935  TIP3      OH2             6.0461233302      -18.7033962349      -38.6709522167  TIP3      2789            0.0000000000
     21834      2935  TIP3      H1              6.9592380343      -18.3662560599      -38.5239150897  TIP3      2789            0.0000000000
     21835      2935  TIP3      H2              5.9997252009      -19.3866642559      -37.9575017655  TIP3      2789            0.0000000000
     21836      2936  TIP3      OH2             6.2872629730      -20.7008471531      -36.8664724278  TIP3      2790            0.0000000000
     21837      2936  TIP3      H1              5.7028212713      -21.3244491786      -36.3688328926  TIP3      2790            0.0000000000
     21838      2936  TIP3      H2              6.9768373077      -20.5135298574      -36.2092636315  TIP3      2790            0.0000000000
     21839      2937  TIP3      OH2             6.2383179869      -18.0992263664      -31.9700659275  TIP3      2791            0.0000000000
     21840      2937  TIP3      H1              6.9995272097      -18.7031151296      -32.0850292596  TIP3      2791            0.0000000000
     21841      2937  TIP3      H2              6.6079606244      -17.2547273653      -32.2978211582  TIP3      2791            0.0000000000
     21842      2938  TIP3      OH2             5.1080499874      -15.2201890742      -29.4705549939  TIP3      2792            0.0000000000
     21843      2938  TIP3      H1              4.3796668119      -14.6005031856      -29.2945249402  TIP3      2792            0.0000000000
     21844      2938  TIP3      H2              4.8044144874      -15.5960410158      -30.3279201745  TIP3      2792            0.0000000000
     21845      2939  TIP3      OH2             6.7910939353      -21.0363829040      -40.1600662519  TIP3      2793            0.0000000000
     21846      2939  TIP3      H1              6.0251724764      -21.1212095826      -40.7416950313  TIP3      2793            0.0000000000
     21847      2939  TIP3      H2              6.6022293929      -20.1728774924      -39.7283517630  TIP3      2793            0.0000000000
     21848      2940  TIP3      OH2             4.4499720614      -23.6401610686      -41.5019880248  TIP3      2794            0.0000000000
     21849      2940  TIP3      H1              5.2983627347      -23.4433648242      -41.9371830420  TIP3      2794            0.0000000000
     21850      2940  TIP3      H2              4.3157122736      -24.5705022918      -41.8069776186  TIP3      2794            0.0000000000
     21851      2941  TIP3      OH2             4.7347684794      -22.3219844756      -35.5725992104  TIP3      2795            0.0000000000
     21852      2941  TIP3      H1              4.2629690541      -23.0556986097      -36.0039452936  TIP3      2795            0.0000000000
     21853      2941  TIP3      H2              4.2918700941      -22.2396477362      -34.6975502286  TIP3      2795            0.0000000000
     21854      2942  TIP3      OH2           -10.6555884042      -20.1367316787      -31.8686193604  TIP3      2796            0.0000000000
     21855      2942  TIP3      H1            -10.4156975531      -20.3118334086      -32.7926901984  TIP3      2796            0.0000000000
     21856      2942  TIP3      H2             -9.8136875639      -20.4166486683      -31.4215583299  TIP3      2796            0.0000000000
     21857      2943  TIP3      OH2             5.1792618330      -20.3064105329      -26.2408269588  TIP3      2797            0.0000000000
     21858      2943  TIP3      H1              5.7244941033      -21.1228513076      -26.1855207573  TIP3      2797            0.0000000000
     21859      2943  TIP3      H2              5.7790118116      -19.6437011493      -26.6264105237  TIP3      2797            0.0000000000
     21860      2944  TIP3      OH2             6.6019929128      -22.6618213481      -25.7389850040  TIP3      2798            0.0000000000
     21861      2944  TIP3      H1              5.7287401653      -23.1100327751      -25.8496389782  TIP3      2798            0.0000000000
     21862      2944  TIP3      H2              7.1552255292      -23.4291564069      -25.4911641768  TIP3      2798            0.0000000000
     21863      2945  TIP3      OH2             4.4434023430      -26.1419803592      -42.4018996817  TIP3      2799            0.0000000000
     21864      2945  TIP3      H1              4.8474326270      -26.8449661117      -41.8542664606  TIP3      2799            0.0000000000
     21865      2945  TIP3      H2              3.4854226745      -26.2544276516      -42.2147755898  TIP3      2799            0.0000000000
     21866      2946  TIP3      OH2             4.1397112066      -24.2837169893      -37.4700239018  TIP3      2800            0.0000000000
     21867      2946  TIP3      H1              3.9045447665      -24.8788584341      -36.7276851724  TIP3      2800            0.0000000000
     21868      2946  TIP3      H2              4.5582696807      -24.9558622913      -38.0248434310  TIP3      2800            0.0000000000
     21869      2947  TIP3      OH2             4.7336375682      -23.9048048977      -31.9297436176  TIP3      2801            0.0000000000
     21870      2947  TIP3      H1              5.7136470672      -23.8017917940      -32.0163566204  TIP3      2801            0.0000000000
     21871      2947  TIP3      H2              4.6760912247      -23.7178087055      -30.9724814314  TIP3      2801            0.0000000000
     21872      2948  TIP3      OH2             4.9508082296      -23.2080215496      -29.2539822777  TIP3      2802            0.0000000000
     21873      2948  TIP3      H1              4.0158952767      -22.9496317843      -29.0703198933  TIP3      2802            0.0000000000
     21874      2948  TIP3      H2              5.3709228949      -22.3374523956      -29.4189582121  TIP3      2802            0.0000000000
     21875      2949  TIP3      OH2           -10.7723020786      -25.3165800115      -26.0921262540  TIP3      2803            0.0000000000
     21876      2949  TIP3      H1             -9.9711073527      -25.4148404565      -25.5568489761  TIP3      2803            0.0000000000
     21877      2949  TIP3      H2            -11.2789547765      -26.1146321491      -25.8482093741  TIP3      2803            0.0000000000
     21878      2950  TIP3      OH2             7.4872328852      -29.1906573849      -23.6041091859  TIP3      2804            0.0000000000
     21879      2950  TIP3      H1              7.1849346879      -29.9537760936      -24.1432086908  TIP3      2804            0.0000000000
     21880      2950  TIP3      H2              7.4302659407      -28.5364750116      -24.3352190684  TIP3      2804            0.0000000000
     21881      2951  TIP3      OH2             5.0978078505      -26.9229731452      -37.3442131420  TIP3      2805            0.0000000000
     21882      2951  TIP3      H1              4.7888881517      -27.2242773712      -36.4698625032  TIP3      2805            0.0000000000
     21883      2951  TIP3      H2              4.4017965652      -27.2712637189      -37.9435445727  TIP3      2805            0.0000000000
     21884      2952  TIP3      OH2           -10.0957642331      -26.3305013670      -32.7182720864  TIP3      2806            0.0000000000
     21885      2952  TIP3      H1             -9.4942027570      -27.0564360437      -32.5269746905  TIP3      2806            0.0000000000
     21886      2952  TIP3      H2             -9.4769767636      -25.5896498518      -32.8505841004  TIP3      2806            0.0000000000
     21887      2953  TIP3      OH2           -11.3651628932      -23.6085328884      -31.6008319346  TIP3      2807            0.0000000000
     21888      2953  TIP3      H1            -10.9766208070      -23.7115220339      -32.5039377137  TIP3      2807            0.0000000000
     21889      2953  TIP3      H2            -10.6265165458      -23.1577478058      -31.1719890869  TIP3      2807            0.0000000000
     21890      2954  TIP3      OH2             6.5112963450      -27.4215227046      -25.5076776104  TIP3      2808            0.0000000000
     21891      2954  TIP3      H1              5.8131067086      -26.8236903039      -25.1668001913  TIP3      2808            0.0000000000
     21892      2954  TIP3      H2              6.0605409462      -27.8464460564      -26.2683227067  TIP3      2808            0.0000000000
     21893      2955  TIP3      OH2             6.2684940793      -27.6348317897      -40.7872381346  TIP3      2809            0.0000000000
     21894      2955  TIP3      H1              6.2910934831      -28.4429084073      -41.3335095623  TIP3      2809            0.0000000000
     21895      2955  TIP3      H2              6.9193716344      -27.0689922241      -41.2313991900  TIP3      2809            0.0000000000
     21896      2956  TIP3      OH2           -11.5949342375      -27.5796649247      -37.5364326427  TIP3      2810            0.0000000000
     21897      2956  TIP3      H1            -12.4931665869      -27.2265903426      -37.6316739762  TIP3      2810            0.0000000000
     21898      2956  TIP3      H2            -11.1172828903      -27.0729356113      -38.2232904116  TIP3      2810            0.0000000000
     21899      2957  TIP3      OH2             3.7984580794      -12.2024395699      -35.4911893982  TIP3      2811            0.0000000000
     21900      2957  TIP3      H1              4.5541636571      -12.3106535030      -36.0995183446  TIP3      2811            0.0000000000
     21901      2957  TIP3      H2              4.1969892829      -11.6680178444      -34.7835775890  TIP3      2811            0.0000000000
     21902      2958  TIP3      OH2           -11.2206289013      -28.6194407697      -29.6253214584  TIP3      2812            0.0000000000
     21903      2958  TIP3      H1            -11.2451436968      -28.3084099486      -28.7075969356  TIP3      2812            0.0000000000
     21904      2958  TIP3      H2            -11.3679441377      -27.7886521517      -30.1215288713  TIP3      2812            0.0000000000
     21905      2959  TIP3      OH2            -8.3099173768      -15.4037741837      -24.8374626288  TIP3      2813            0.0000000000
     21906      2959  TIP3      H1             -8.7775401256      -14.5815893968      -25.0922878614  TIP3      2813            0.0000000000
     21907      2959  TIP3      H2             -8.4663028041      -15.4715429161      -23.8864622781  TIP3      2813            0.0000000000
     21908      2960  TIP3      OH2            -6.2242371159      -14.0742897413      -29.1806641102  TIP3      2814            0.0000000000
     21909      2960  TIP3      H1             -6.2436899868      -13.0969741224      -29.3163259325  TIP3      2814            0.0000000000
     21910      2960  TIP3      H2             -5.2505352669      -14.1985249381      -29.2473388559  TIP3      2814            0.0000000000
     21911      2961  TIP3      OH2            -1.9442307440      -13.3762746544      -26.3540673781  TIP3      2815            0.0000000000
     21912      2961  TIP3      H1             -1.9400387116      -13.4826160496      -25.3949007936  TIP3      2815            0.0000000000
     21913      2961  TIP3      H2             -1.1855973060      -12.7657374394      -26.4739181660  TIP3      2815            0.0000000000
     21914      2962  TIP3      OH2             0.1147615806      -11.5102720656      -26.5035714346  TIP3      2816            0.0000000000
     21915      2962  TIP3      H1              0.8695350598      -12.1139717237      -26.5828157704  TIP3      2816            0.0000000000
     21916      2962  TIP3      H2              0.3706196255      -11.0155470257      -25.6965676708  TIP3      2816            0.0000000000
     21917      2963  TIP3      OH2             5.5917552377      -29.0401772464      -27.7203202430  TIP3      2817            0.0000000000
     21918      2963  TIP3      H1              5.0438262572      -28.4065172252      -28.2283937031  TIP3      2817            0.0000000000
     21919      2963  TIP3      H2              5.6241443286      -29.7594492427      -28.3687449313  TIP3      2817            0.0000000000
     21920      2964  TIP3      OH2            -8.8569146885      -11.3149730875      -29.2068234240  TIP3      2818            0.0000000000
     21921      2964  TIP3      H1             -9.5771545489      -10.7234382793      -29.5363697873  TIP3      2818            0.0000000000
     21922      2964  TIP3      H2             -8.7397669542      -10.9724400016      -28.3030003871  TIP3      2818            0.0000000000
     21923      2965  TIP3      OH2            -6.2197913341      -11.5261535561      -30.1346337716  TIP3      2819            0.0000000000
     21924      2965  TIP3      H1             -7.1816741086      -11.4038278227      -29.9628703575  TIP3      2819            0.0000000000
     21925      2965  TIP3      H2             -6.0779062977      -10.9595518380      -30.9187387670  TIP3      2819            0.0000000000
     21926      2966  TIP3      OH2            -1.5715107110      -11.8719835891      -30.8180781844  TIP3      2820            0.0000000000
     21927      2966  TIP3      H1             -2.3823630370      -11.3382825129      -30.8755001029  TIP3      2820            0.0000000000
     21928      2966  TIP3      H2             -1.0527502307      -11.2801199253      -30.2382749753  TIP3      2820            0.0000000000
     21929      2967  TIP3      OH2             0.6258717035      -13.1950536373      -29.4784962886  TIP3      2821            0.0000000000
     21930      2967  TIP3      H1              0.0098261586      -12.8059797560      -30.1294305284  TIP3      2821            0.0000000000
     21931      2967  TIP3      H2              1.4096634809      -12.6175471956      -29.5810722299  TIP3      2821            0.0000000000
     21932      2968  TIP3      OH2             3.0535340896      -11.9950280919      -29.7829289467  TIP3      2822            0.0000000000
     21933      2968  TIP3      H1              3.2313858602      -11.0917907933      -30.1014427206  TIP3      2822            0.0000000000
     21934      2968  TIP3      H2              3.3717024503      -12.5252730737      -30.5500578905  TIP3      2822            0.0000000000
     21935      2969  TIP3      OH2            -8.9215056542      -12.6731088164      -31.8759753768  TIP3      2823            0.0000000000
     21936      2969  TIP3      H1             -8.9811985652      -12.9110873473      -30.9356777445  TIP3      2823            0.0000000000
     21937      2969  TIP3      H2             -8.0009449190      -12.9179227234      -32.1261297719  TIP3      2823            0.0000000000
     21938      2970  TIP3      OH2            -6.6905181394      -13.6797139736      -33.3730237311  TIP3      2824            0.0000000000
     21939      2970  TIP3      H1             -6.8889907881      -14.6160924442      -33.1997817689  TIP3      2824            0.0000000000
     21940      2970  TIP3      H2             -5.7889010460      -13.6135516014      -32.9887056184  TIP3      2824            0.0000000000
     21941      2971  TIP3      OH2            -4.2728823870      -13.6203427924      -32.1077040123  TIP3      2825            0.0000000000
     21942      2971  TIP3      H1             -3.7996897931      -14.4251345252      -32.3804236935  TIP3      2825            0.0000000000
     21943      2971  TIP3      H2             -4.1744875269      -13.6401301656      -31.1401650090  TIP3      2825            0.0000000000
     21944      2972  TIP3      OH2            -0.9199256979      -27.7381626010      -32.7848748800  TIP3      2826            0.0000000000
     21945      2972  TIP3      H1             -1.5051630927      -28.3946488517      -33.1762716944  TIP3      2826            0.0000000000
     21946      2972  TIP3      H2             -0.7277294836      -27.2067430723      -33.5823316967  TIP3      2826            0.0000000000
     21947      2973  TIP3      OH2             4.7412470033      -29.8981015372      -32.7126426078  TIP3      2827            0.0000000000
     21948      2973  TIP3      H1              5.2518680510      -29.4252207153      -33.4110104860  TIP3      2827            0.0000000000
     21949      2973  TIP3      H2              4.3140339971      -29.1578041847      -32.2607157147  TIP3      2827            0.0000000000
     21950      2974  TIP3      OH2             5.9733893859      -28.8855167759      -34.9252960980  TIP3      2828            0.0000000000
     21951      2974  TIP3      H1              6.4184871054      -29.2119048047      -35.7221157429  TIP3      2828            0.0000000000
     21952      2974  TIP3      H2              6.3226470698      -27.9601411602      -34.9011979482  TIP3      2828            0.0000000000
     21953      2975  TIP3      OH2            -8.8235299062      -29.1521082146      -35.6805240417  TIP3      2829            0.0000000000
     21954      2975  TIP3      H1             -9.7060826820      -29.1305659740      -36.0936616859  TIP3      2829            0.0000000000
     21955      2975  TIP3      H2             -8.6614837687      -30.0987665251      -35.5081370983  TIP3      2829            0.0000000000
     21956      2976  TIP3      OH2            -9.4296898426      -29.4192414869      -39.5208145045  TIP3      2830            0.0000000000
     21957      2976  TIP3      H1             -9.0409310155      -29.2155102852      -40.4064223399  TIP3      2830            0.0000000000
     21958      2976  TIP3      H2            -10.0737378898      -28.6888805796      -39.4463631769  TIP3      2830            0.0000000000
     21959      2977  TIP3      OH2            -4.4871485672      -29.7151815989      -35.9715053124  TIP3      2831            0.0000000000
     21960      2977  TIP3      H1             -3.8316860709      -29.0340423594      -36.1966827700  TIP3      2831            0.0000000000
     21961      2977  TIP3      H2             -4.2182126852      -29.8531006360      -35.0414090354  TIP3      2831            0.0000000000
     21962      2978  TIP3      OH2             1.0644010654      -29.2033670411      -34.8790538291  TIP3      2832            0.0000000000
     21963      2978  TIP3      H1              1.8352481222      -29.8203671328      -34.8755739505  TIP3      2832            0.0000000000
     21964      2978  TIP3      H2              0.8373131621      -29.2840126411      -33.9434342096  TIP3      2832            0.0000000000
     21965      2979  TIP3      OH2             2.8937069580      -28.0249806732      -38.6216209809  TIP3      2833            0.0000000000
     21966      2979  TIP3      H1              2.0348540825      -27.5584163922      -38.5361402136  TIP3      2833            0.0000000000
     21967      2979  TIP3      H2              2.8398710633      -28.7821044261      -38.0196445314  TIP3      2833            0.0000000000
     21968      2980  TIP3      OH2            -9.8677381461      -13.3884237330      -39.0343756893  TIP3      2834            0.0000000000
     21969      2980  TIP3      H1            -10.7897518309      -13.3387467200      -39.3685762669  TIP3      2834            0.0000000000
     21970      2980  TIP3      H2             -9.6633161414      -12.4350710933      -39.1148216313  TIP3      2834            0.0000000000
     21971      2981  TIP3      OH2            -8.0476227764      -27.9347223381      -41.5057956713  TIP3      2835            0.0000000000
     21972      2981  TIP3      H1             -7.7646708215      -27.3970515252      -42.2700263419  TIP3      2835            0.0000000000
     21973      2981  TIP3      H2             -7.5862810715      -27.4645219958      -40.7859056544  TIP3      2835            0.0000000000
     21974      2982  TIP3      OH2            -3.2642030994      -27.2551282549      -38.6557246216  TIP3      2836            0.0000000000
     21975      2982  TIP3      H1             -2.4843956342      -27.5493161364      -38.1301548593  TIP3      2836            0.0000000000
     21976      2982  TIP3      H2             -3.1696096135      -26.2867723661      -38.4968179328  TIP3      2836            0.0000000000
     21977      2983  TIP3      OH2            -1.0466360519      -11.3706967062      -40.6554411343  TIP3      2837            0.0000000000
     21978      2983  TIP3      H1             -0.5251661877      -11.0704049475      -41.4148455784  TIP3      2837            0.0000000000
     21979      2983  TIP3      H2             -0.8986879871      -12.3276685134      -40.7432123403  TIP3      2837            0.0000000000
     21980      2984  TIP3      OH2             5.5621999083      -13.0127570034      -37.4054913522  TIP3      2838            0.0000000000
     21981      2984  TIP3      H1              5.3290963765      -13.8008529869      -37.9588079290  TIP3      2838            0.0000000000
     21982      2984  TIP3      H2              5.4152401568      -12.2871667268      -38.0473996560  TIP3      2838            0.0000000000
     21983      2985  TIP3      OH2            -8.7699020025      -29.0664607790      -26.2719870693  TIP3      2839            0.0000000000
     21984      2985  TIP3      H1             -8.9620899712      -30.0212394631      -26.2716448615  TIP3      2839            0.0000000000
     21985      2985  TIP3      H2             -7.8790545277      -29.0503121555      -25.8624397195  TIP3      2839            0.0000000000
     21986      2986  TIP3      OH2            -6.4219049353      -29.1852155989      -24.8322571729  TIP3      2840            0.0000000000
     21987      2986  TIP3      H1             -5.4673586078      -29.3222355979      -25.0048911118  TIP3      2840            0.0000000000
     21988      2986  TIP3      H2             -6.5703966935      -29.7543419939      -24.0430110633  TIP3      2840            0.0000000000
     21989      2987  TIP3      OH2            -7.9237151406      -12.1343121324      -41.6392538507  TIP3      2841            0.0000000000
     21990      2987  TIP3      H1             -8.7249391841      -11.6074574377      -41.4932953737  TIP3      2841            0.0000000000
     21991      2987  TIP3      H2             -8.0986141880      -12.9646644870      -41.1752807939  TIP3      2841            0.0000000000
     21992      2988  TIP3      OH2             2.1840308413      -29.2018420882      -24.3827012952  TIP3      2842            0.0000000000
     21993      2988  TIP3      H1              1.9631515906      -30.0174942923      -23.8776383602  TIP3      2842            0.0000000000
     21994      2988  TIP3      H2              1.9268739013      -29.4634603013      -25.2717584191  TIP3      2842            0.0000000000
     21995      2989  TIP3      OH2             5.0655922494      -14.1291338473      -26.0642180331  TIP3      2843            0.0000000000
     21996      2989  TIP3      H1              4.3960882875      -13.8140162620      -26.7139115188  TIP3      2843            0.0000000000
     21997      2989  TIP3      H2              4.9622056964      -13.4690793942      -25.3628265051  TIP3      2843            0.0000000000
     21998      2990  TIP3      OH2            19.7676790706      -19.7431480272      -35.6652620855  TIP3      2844            0.0000000000
     21999      2990  TIP3      H1             19.3901222615      -18.8485711523      -35.8557435154  TIP3      2844            0.0000000000
     22000      2990  TIP3      H2             19.0260383800      -20.3404752591      -35.8268016151  TIP3      2844            0.0000000000
     22001      2991  TIP3      OH2            18.3273995206      -21.2331887799      -32.4195646853  TIP3      2845            0.0000000000
     22002      2991  TIP3      H1             18.2891359311      -21.5811844707      -31.5106658921  TIP3      2845            0.0000000000
     22003      2991  TIP3      H2             17.5983111084      -21.6743729997      -32.8791747611  TIP3      2845            0.0000000000
     22004      2992  TIP3      OH2            10.3796226649      -20.9833691058      -30.5872220849  TIP3      2846            0.0000000000
     22005      2992  TIP3      H1             10.2023119143      -21.7764232422      -30.0540650925  TIP3      2846            0.0000000000
     22006      2992  TIP3      H2             11.2542663271      -20.7217250331      -30.2591955241  TIP3      2846            0.0000000000
     22007      2993  TIP3      OH2            21.6729679916      -17.9173662308      -33.7590873982  TIP3      2847            0.0000000000
     22008      2993  TIP3      H1             21.3859190288      -18.6481421783      -33.1907881951  TIP3      2847            0.0000000000
     22009      2993  TIP3      H2             21.8332570697      -17.2045795310      -33.1223606501  TIP3      2847            0.0000000000
     22010      2994  TIP3      OH2            11.7053403384      -16.6239482760      -32.2509058186  TIP3      2848            0.0000000000
     22011      2994  TIP3      H1             11.2900872222      -17.4472949067      -32.5889714696  TIP3      2848            0.0000000000
     22012      2994  TIP3      H2             12.6048868195      -16.7529420774      -32.6166730243  TIP3      2848            0.0000000000
     22013      2995  TIP3      OH2             8.0763418388      -23.6438528316      -36.8567778038  TIP3      2849            0.0000000000
     22014      2995  TIP3      H1              7.6474138261      -22.8644253454      -36.4968153345  TIP3      2849            0.0000000000
     22015      2995  TIP3      H2              7.5490890811      -23.7963250822      -37.6658666239  TIP3      2849            0.0000000000
     22016      2996  TIP3      OH2             8.4724522685      -20.7272096433      -34.4378963631  TIP3      2850            0.0000000000
     22017      2996  TIP3      H1              8.8017923670      -21.6428364708      -34.4917902019  TIP3      2850            0.0000000000
     22018      2996  TIP3      H2              9.2812128493      -20.1971149301      -34.5189574990  TIP3      2850            0.0000000000
     22019      2997  TIP3      OH2            19.1975598370      -12.4543402372      -33.8848960710  TIP3      2851            0.0000000000
     22020      2997  TIP3      H1             19.7562867348      -13.0653910261      -34.4197190773  TIP3      2851            0.0000000000
     22021      2997  TIP3      H2             18.7852109966      -13.1001245579      -33.2938088423  TIP3      2851            0.0000000000
     22022      2998  TIP3      OH2            16.2629485334      -17.8006137496      -31.2604124873  TIP3      2852            0.0000000000
     22023      2998  TIP3      H1             16.7780981253      -18.2969721305      -31.9121636561  TIP3      2852            0.0000000000
     22024      2998  TIP3      H2             16.9755205066      -17.3765696733      -30.7178707769  TIP3      2852            0.0000000000
     22025      2999  TIP3      OH2            25.3468128771      -26.9210577158      -31.4910705131  TIP3      2853            0.0000000000
     22026      2999  TIP3      H1             25.3864292539      -26.3195230559      -30.7191536416  TIP3      2853            0.0000000000
     22027      2999  TIP3      H2             25.9319110398      -26.4398656420      -32.1052427116  TIP3      2853            0.0000000000
     22028      3000  TIP3      OH2            19.7945241299      -23.6666000280      -31.1256817774  TIP3      2854            0.0000000000
     22029      3000  TIP3      H1             20.0920605050      -24.5628149580      -30.8928011574  TIP3      2854            0.0000000000
     22030      3000  TIP3      H2             19.7348029863      -23.7419560566      -32.1087291470  TIP3      2854            0.0000000000
     22031      3001  TIP3      OH2            12.8867252365      -26.0135534565      -34.5103658373  TIP3      2855            0.0000000000
     22032      3001  TIP3      H1             13.1640900915      -25.2639956937      -35.0742707938  TIP3      2855            0.0000000000
     22033      3001  TIP3      H2             12.2853540680      -26.4927130962      -35.1248264393  TIP3      2855            0.0000000000
     22034      3002  TIP3      OH2            20.5913328147      -25.5628663436      -35.4806051558  TIP3      2856            0.0000000000
     22035      3002  TIP3      H1             21.1186676405      -26.1451398790      -34.8817691270  TIP3      2856            0.0000000000
     22036      3002  TIP3      H2             21.2438299606      -24.9271215950      -35.8209430465  TIP3      2856            0.0000000000
     22037      3003  TIP3      OH2             9.2335548904      -23.5381515771      -33.6605985638  TIP3      2857            0.0000000000
     22038      3003  TIP3      H1              9.7399461749      -24.1034195877      -33.0480664196  TIP3      2857            0.0000000000
     22039      3003  TIP3      H2              9.5971624245      -23.8433303685      -34.5176164000  TIP3      2857            0.0000000000
     22040      3004  TIP3      OH2            13.9038797768      -22.0728035531      -34.1383357561  TIP3      2858            0.0000000000
     22041      3004  TIP3      H1             14.7672848210      -22.4552551930      -33.8646555972  TIP3      2858            0.0000000000
     22042      3004  TIP3      H2             13.6315333424      -22.7297103146      -34.8272039301  TIP3      2858            0.0000000000
     22043      3005  TIP3      OH2            25.1457810406      -25.4077675759      -29.0698907907  TIP3      2859            0.0000000000
     22044      3005  TIP3      H1             24.8789821640      -24.5409614021      -29.4465901793  TIP3      2859            0.0000000000
     22045      3005  TIP3      H2             25.4630877252      -25.1185851907      -28.2009059770  TIP3      2859            0.0000000000
     22046      3006  TIP3      OH2            11.8819590268      -26.7917275488      -30.3968687070  TIP3      2860            0.0000000000
     22047      3006  TIP3      H1             11.5111171722      -26.1803019551      -31.0760374997  TIP3      2860            0.0000000000
     22048      3006  TIP3      H2             11.2368080985      -26.6575058258      -29.6666141892  TIP3      2860            0.0000000000
     22049      3007  TIP3      OH2            18.6866881224      -17.5983157039      -36.7946377462  TIP3      2861            0.0000000000
     22050      3007  TIP3      H1             18.4468631527      -17.6107575269      -37.7335725238  TIP3      2861            0.0000000000
     22051      3007  TIP3      H2             18.2911737535      -16.7347113786      -36.5114131133  TIP3      2861            0.0000000000
     22052      3008  TIP3      OH2            13.9914687344      -19.0639167343      -30.6359823859  TIP3      2862            0.0000000000
     22053      3008  TIP3      H1             13.4005737388      -18.3804554488      -30.2486008178  TIP3      2862            0.0000000000
     22054      3008  TIP3      H2             14.7328546996      -18.4904962503      -30.9274080739  TIP3      2862            0.0000000000
     22055      3009  TIP3      OH2            22.1632877130      -26.8304921383      -33.6875931753  TIP3      2863            0.0000000000
     22056      3009  TIP3      H1             21.6901006115      -26.8648634006      -32.8270070063  TIP3      2863            0.0000000000
     22057      3009  TIP3      H2             22.9761685525      -26.3549146800      -33.4454187067  TIP3      2863            0.0000000000
     22058      3010  TIP3      OH2            11.4322482387      -25.0080877978      -32.3571896288  TIP3      2864            0.0000000000
     22059      3010  TIP3      H1             12.0691316283      -24.4078020447      -31.9089242125  TIP3      2864            0.0000000000
     22060      3010  TIP3      H2             11.9500896749      -25.2783902127      -33.1448900500  TIP3      2864            0.0000000000
     22061      3011  TIP3      OH2            12.7276801625      -16.9689908409      -29.5142078449  TIP3      2865            0.0000000000
     22062      3011  TIP3      H1             12.3509655419      -16.5840428471      -30.3260429282  TIP3      2865            0.0000000000
     22063      3011  TIP3      H2             11.9065492630      -17.0750150819      -28.9674358863  TIP3      2865            0.0000000000
     22064      3012  TIP3      OH2             8.5966347071      -17.9317089641      -38.4145730991  TIP3      2866            0.0000000000
     22065      3012  TIP3      H1              8.5100134778      -17.4632462483      -39.2627745214  TIP3      2866            0.0000000000
     22066      3012  TIP3      H2              8.6851358638      -17.1567371643      -37.8051562225  TIP3      2866            0.0000000000
     22067      3013  TIP3      OH2            22.4296640330      -15.8610887975      -31.9419733090  TIP3      2867            0.0000000000
     22068      3013  TIP3      H1             21.5369975224      -15.6766929591      -31.5591242427  TIP3      2867            0.0000000000
     22069      3013  TIP3      H2             22.5829273163      -15.0145179240      -32.3998818553  TIP3      2867            0.0000000000
     22070      3014  TIP3      OH2            23.1622126539      -27.8411446509      -29.9234547899  TIP3      2868            0.0000000000
     22071      3014  TIP3      H1             22.5147205683      -27.3318676414      -30.4429520749  TIP3      2868            0.0000000000
     22072      3014  TIP3      H2             23.9684358407      -27.7362448054      -30.4636263209  TIP3      2868            0.0000000000
     22073      3015  TIP3      OH2            15.5008532764      -29.3834553409      -33.1932196265  TIP3      2869            0.0000000000
     22074      3015  TIP3      H1             15.7889085529      -30.0243003995      -32.5301126686  TIP3      2869            0.0000000000
     22075      3015  TIP3      H2             14.8470736783      -28.8618134857      -32.6696422799  TIP3      2869            0.0000000000
     22076      3016  TIP3      OH2            20.6766453070      -14.0531614216      -35.3951353592  TIP3      2870            0.0000000000
     22077      3016  TIP3      H1             21.0165166900      -14.8983270525      -35.7703200496  TIP3      2870            0.0000000000
     22078      3016  TIP3      H2             21.4453871890      -13.4551245231      -35.5795186730  TIP3      2870            0.0000000000
     22079      3017  TIP3      OH2            21.8610341868      -16.3532950120      -36.5512257448  TIP3      2871            0.0000000000
     22080      3017  TIP3      H1             21.6498312111      -16.9442694392      -37.2931693583  TIP3      2871            0.0000000000
     22081      3017  TIP3      H2             21.7222314321      -16.9599988146      -35.8055783669  TIP3      2871            0.0000000000
     22082      3018  TIP3      OH2            23.5059381315      -17.6322306606      -27.9711207132  TIP3      2872            0.0000000000
     22083      3018  TIP3      H1             23.5229394747      -18.3439740940      -28.6544367395  TIP3      2872            0.0000000000
     22084      3018  TIP3      H2             23.4606166762      -16.8459869684      -28.5578948013  TIP3      2872            0.0000000000
     22085      3019  TIP3      OH2            18.0241346245      -20.8256495929      -38.3224056329  TIP3      2873            0.0000000000
     22086      3019  TIP3      H1             17.3323259691      -20.1742855908      -38.5441389568  TIP3      2873            0.0000000000
     22087      3019  TIP3      H2             18.8324206473      -20.4161057239      -38.6925417806  TIP3      2873            0.0000000000
     22088      3020  TIP3      OH2            18.1456030168      -21.9509981071      -41.0036068111  TIP3      2874            0.0000000000
     22089      3020  TIP3      H1             18.7347116654      -21.6794249197      -40.2684819400  TIP3      2874            0.0000000000
     22090      3020  TIP3      H2             18.7498321710      -22.3746765568      -41.6249004726  TIP3      2874            0.0000000000
     22091      3021  TIP3      OH2            25.0678901626      -21.1571379782      -29.8371234286  TIP3      2875            0.0000000000
     22092      3021  TIP3      H1             24.3902680218      -20.4634220549      -29.9778525497  TIP3      2875            0.0000000000
     22093      3021  TIP3      H2             25.6774773120      -20.9572817360      -30.5753708762  TIP3      2875            0.0000000000
     22094      3022  TIP3      OH2            21.8475829505      -20.3512658766      -37.1947225427  TIP3      2876            0.0000000000
     22095      3022  TIP3      H1             21.1060772143      -20.0785465190      -36.5922236182  TIP3      2876            0.0000000000
     22096      3022  TIP3      H2             22.4167266670      -20.8547696790      -36.5672041351  TIP3      2876            0.0000000000
     22097      3023  TIP3      OH2            21.0733775946      -22.2661962259      -28.2101684260  TIP3      2877            0.0000000000
     22098      3023  TIP3      H1             21.2678000280      -21.4370606909      -27.7390286525  TIP3      2877            0.0000000000
     22099      3023  TIP3      H2             20.4084487585      -21.9439812649      -28.8448899029  TIP3      2877            0.0000000000
     22100      3024  TIP3      OH2            12.7609987368      -20.1115912368      -35.5780784136  TIP3      2878            0.0000000000
     22101      3024  TIP3      H1             12.8673698363      -20.4430378667      -36.4956717483  TIP3      2878            0.0000000000
     22102      3024  TIP3      H2             13.2558447697      -20.7837031501      -35.0739516857  TIP3      2878            0.0000000000
     22103      3025  TIP3      OH2            14.3648438452      -16.7381849712      -32.7306035821  TIP3      2879            0.0000000000
     22104      3025  TIP3      H1             14.5269434216      -17.0702183963      -33.6246152646  TIP3      2879            0.0000000000
     22105      3025  TIP3      H2             15.1125307994      -17.1010812124      -32.2052967327  TIP3      2879            0.0000000000
     22106      3026  TIP3      OH2            13.0378003179      -21.2679348098      -31.6839533440  TIP3      2880            0.0000000000
     22107      3026  TIP3      H1             13.2844447768      -21.3025105177      -32.6361463743  TIP3      2880            0.0000000000
     22108      3026  TIP3      H2             13.5727481211      -20.5054800410      -31.3714446123  TIP3      2880            0.0000000000
     22109      3027  TIP3      OH2            20.0275432528      -15.4834438037      -30.9402707298  TIP3      2881            0.0000000000
     22110      3027  TIP3      H1             19.6928119667      -14.8438862514      -30.2916185396  TIP3      2881            0.0000000000
     22111      3027  TIP3      H2             19.5513575014      -16.2904773401      -30.6608474296  TIP3      2881            0.0000000000
     22112      3028  TIP3      OH2            14.2320410802      -16.9165348563      -27.2796845669  TIP3      2882            0.0000000000
     22113      3028  TIP3      H1             13.5283750861      -16.3177971174      -26.9351366186  TIP3      2882            0.0000000000
     22114      3028  TIP3      H2             13.8338890506      -17.0985478593      -28.1639575270  TIP3      2882            0.0000000000
     22115      3029  TIP3      OH2            20.3910805327      -21.2288680732      -39.4084665146  TIP3      2883            0.0000000000
     22116      3029  TIP3      H1             20.9230595677      -20.9583604755      -38.6254732474  TIP3      2883            0.0000000000
     22117      3029  TIP3      H2             20.8320872955      -20.7332270094      -40.1339897398  TIP3      2883            0.0000000000
     22118      3030  TIP3      OH2            11.3265675235      -20.7602032179      -27.9490678368  TIP3      2884            0.0000000000
     22119      3030  TIP3      H1             11.4412122185      -19.8359883204      -27.6951893360  TIP3      2884            0.0000000000
     22120      3030  TIP3      H2             10.5188144309      -20.9975494767      -27.4579640489  TIP3      2884            0.0000000000
     22121      3031  TIP3      OH2            17.9671949137      -15.2175704030      -35.9008732396  TIP3      2885            0.0000000000
     22122      3031  TIP3      H1             18.5656433360      -14.7079898360      -35.3446883130  TIP3      2885            0.0000000000
     22123      3031  TIP3      H2             17.7040309352      -14.5687010498      -36.5675763430  TIP3      2885            0.0000000000
     22124      3032  TIP3      OH2            12.4562032316      -15.1909224180      -26.2237088705  TIP3      2886            0.0000000000
     22125      3032  TIP3      H1             12.4136460983      -14.6160997111      -27.0215052589  TIP3      2886            0.0000000000
     22126      3032  TIP3      H2             11.4957900507      -15.3475525490      -26.0582227702  TIP3      2886            0.0000000000
     22127      3033  TIP3      OH2            24.4395313414      -29.6331635663      -39.2588421061  TIP3      2887            0.0000000000
     22128      3033  TIP3      H1             23.5159437444      -29.5259350010      -39.5521908974  TIP3      2887            0.0000000000
     22129      3033  TIP3      H2             24.8253535772      -28.7789915054      -39.5099610520  TIP3      2887            0.0000000000
     22130      3034  TIP3      OH2            12.1236211987      -21.1400026414      -38.1960159546  TIP3      2888            0.0000000000
     22131      3034  TIP3      H1             11.5470779137      -20.3736397182      -38.4127434401  TIP3      2888            0.0000000000
     22132      3034  TIP3      H2             11.4801363425      -21.8556798554      -38.0910046676  TIP3      2888            0.0000000000
     22133      3035  TIP3      OH2            25.0629899567      -15.7907705151      -41.2500428373  TIP3      2889            0.0000000000
     22134      3035  TIP3      H1             25.4745695805      -14.9269288359      -41.4435963119  TIP3      2889            0.0000000000
     22135      3035  TIP3      H2             25.8754720608      -16.3311609417      -41.1447533875  TIP3      2889            0.0000000000
     22136      3036  TIP3      OH2             8.3726504485      -18.3680232788      -28.9228370453  TIP3      2890            0.0000000000
     22137      3036  TIP3      H1              7.7788622609      -18.4322953449      -29.6834858286  TIP3      2890            0.0000000000
     22138      3036  TIP3      H2              8.7929451309      -19.2492817817      -28.9871085360  TIP3      2890            0.0000000000
     22139      3037  TIP3      OH2             7.9273091848      -15.7575376086      -32.2670450864  TIP3      2891            0.0000000000
     22140      3037  TIP3      H1              8.7045312609      -16.1362792618      -31.8352568075  TIP3      2891            0.0000000000
     22141      3037  TIP3      H2              7.6932117220      -15.0315769547      -31.6614829036  TIP3      2891            0.0000000000
     22142      3038  TIP3      OH2            26.0213747152      -14.9822589641      -26.3165702705  TIP3      2892            0.0000000000
     22143      3038  TIP3      H1             25.6285538557      -15.8271172817      -26.5983518150  TIP3      2892            0.0000000000
     22144      3038  TIP3      H2             25.2685685507      -14.6492928029      -25.7809706665  TIP3      2892            0.0000000000
     22145      3039  TIP3      OH2            16.8741357779      -15.8820575296      -27.3357686776  TIP3      2893            0.0000000000
     22146      3039  TIP3      H1             17.0518727358      -15.0081146382      -26.9245453095  TIP3      2893            0.0000000000
     22147      3039  TIP3      H2             15.9204312432      -16.0499051820      -27.1981176388  TIP3      2893            0.0000000000
     22148      3040  TIP3      OH2            17.4090878163      -11.8040088278      -37.9770122404  TIP3      2894            0.0000000000
     22149      3040  TIP3      H1             17.4296603658      -11.5248035043      -38.9212606032  TIP3      2894            0.0000000000
     22150      3040  TIP3      H2             17.4841496783      -10.9168444957      -37.5515276755  TIP3      2894            0.0000000000
     22151      3041  TIP3      OH2            11.2809304532      -13.3071822157      -35.6949143950  TIP3      2895            0.0000000000
     22152      3041  TIP3      H1             11.6393607810      -13.5705472909      -34.8136306925  TIP3      2895            0.0000000000
     22153      3041  TIP3      H2             10.3532662576      -13.5706065717      -35.5642988279  TIP3      2895            0.0000000000
     22154      3042  TIP3      OH2            20.6298242830      -12.4643553238      -40.9471966149  TIP3      2896            0.0000000000
     22155      3042  TIP3      H1             21.1388261224      -13.2799743012      -41.1054468658  TIP3      2896            0.0000000000
     22156      3042  TIP3      H2             20.5616359443      -12.4425336261      -39.9695629152  TIP3      2896            0.0000000000
     22157      3043  TIP3      OH2            20.1735701059      -12.4023004239      -38.1934406967  TIP3      2897            0.0000000000
     22158      3043  TIP3      H1             19.2126792094      -12.2153829176      -38.2634486313  TIP3      2897            0.0000000000
     22159      3043  TIP3      H2             20.1879322913      -13.1687499741      -37.5999400236  TIP3      2897            0.0000000000
     22160      3044  TIP3      OH2            23.1396659710      -23.4891362213      -26.1470276220  TIP3      2898            0.0000000000
     22161      3044  TIP3      H1             22.3237079120      -23.4503103988      -26.6674599026  TIP3      2898            0.0000000000
     22162      3044  TIP3      H2             23.0565820224      -24.3429897811      -25.6799637224  TIP3      2898            0.0000000000
     22163      3045  TIP3      OH2            10.5877015018      -17.1732420152      -27.9921834805  TIP3      2899            0.0000000000
     22164      3045  TIP3      H1             10.8016652461      -17.6421267853      -27.1503882765  TIP3      2899            0.0000000000
     22165      3045  TIP3      H2              9.6578172785      -17.4574322653      -28.1227200271  TIP3      2899            0.0000000000
     22166      3046  TIP3      OH2            13.5075753433      -28.4707873749      -31.6137511144  TIP3      2900            0.0000000000
     22167      3046  TIP3      H1             12.7310729611      -28.8940389425      -32.0498807170  TIP3      2900            0.0000000000
     22168      3046  TIP3      H2             13.0187594700      -27.7200691199      -31.2063045876  TIP3      2900            0.0000000000
     22169      3047  TIP3      OH2            17.6530240596      -28.7919974443      -27.7886973821  TIP3      2901            0.0000000000
     22170      3047  TIP3      H1             18.0666201486      -29.3157053101      -28.4966898811  TIP3      2901            0.0000000000
     22171      3047  TIP3      H2             16.7159334363      -28.7807044740      -28.0625729425  TIP3      2901            0.0000000000
     22172      3048  TIP3      OH2            20.7255689759      -24.9348909585      -28.1601810180  TIP3      2902            0.0000000000
     22173      3048  TIP3      H1             20.2417002087      -25.1024809327      -27.3153948124  TIP3      2902            0.0000000000
     22174      3048  TIP3      H2             20.6945029331      -23.9533529811      -28.2524179173  TIP3      2902            0.0000000000
     22175      3049  TIP3      OH2            21.5729086549      -20.0248926674      -41.4928962659  TIP3      2903            0.0000000000
     22176      3049  TIP3      H1             21.2843301685      -19.2376811820      -41.9770321817  TIP3      2903            0.0000000000
     22177      3049  TIP3      H2             22.5352646331      -19.9169038573      -41.5512254474  TIP3      2903            0.0000000000
     22178      3050  TIP3      OH2            17.2999354548      -26.0257098719      -41.2198675066  TIP3      2904            0.0000000000
     22179      3050  TIP3      H1             17.1168473381      -25.9339375879      -40.2756598657  TIP3      2904            0.0000000000
     22180      3050  TIP3      H2             16.9856867678      -26.9289326102      -41.4080665122  TIP3      2904            0.0000000000
     22181      3051  TIP3      OH2            13.3501045408      -23.8557318688      -30.8126578507  TIP3      2905            0.0000000000
     22182      3051  TIP3      H1             12.9764161220      -23.6853679625      -29.9206661993  TIP3      2905            0.0000000000
     22183      3051  TIP3      H2             13.1487936710      -22.9962537269      -31.2433039590  TIP3      2905            0.0000000000
     22184      3052  TIP3      OH2            13.3153407406      -23.8128804184      -36.1507624863  TIP3      2906            0.0000000000
     22185      3052  TIP3      H1             12.3444532874      -23.9278518140      -36.1375113115  TIP3      2906            0.0000000000
     22186      3052  TIP3      H2             13.5719969681      -24.1226573614      -37.0546530046  TIP3      2906            0.0000000000
     22187      3053  TIP3      OH2            19.0160778620      -22.8076351806      -36.8286936211  TIP3      2907            0.0000000000
     22188      3053  TIP3      H1             18.5941427237      -22.1050689740      -37.3943647992  TIP3      2907            0.0000000000
     22189      3053  TIP3      H2             19.5903378048      -23.1950660634      -37.5065823590  TIP3      2907            0.0000000000
     22190      3054  TIP3      OH2            17.3432719734      -22.4521765678      -25.4464276822  TIP3      2908            0.0000000000
     22191      3054  TIP3      H1             17.1169780705      -23.4073740151      -25.4611348853  TIP3      2908            0.0000000000
     22192      3054  TIP3      H2             18.3075578078      -22.4722395276      -25.5817301389  TIP3      2908            0.0000000000
     22193      3055  TIP3      OH2            19.6995706895      -23.5819356737      -33.9131464285  TIP3      2909            0.0000000000
     22194      3055  TIP3      H1             19.4954830105      -22.8503693447      -34.5275723165  TIP3      2909            0.0000000000
     22195      3055  TIP3      H2             19.8217207896      -24.3122937075      -34.5500323151  TIP3      2909            0.0000000000
     22196      3056  TIP3      OH2            10.2700269455      -23.6988429516      -29.6335133193  TIP3      2910            0.0000000000
     22197      3056  TIP3      H1             11.0139147600      -23.2807958126      -29.1680619562  TIP3      2910            0.0000000000
     22198      3056  TIP3      H2              9.9819621585      -24.4096134599      -29.0316057386  TIP3      2910            0.0000000000
     22199      3057  TIP3      OH2            14.1881681650      -25.9854207403      -41.7621854804  TIP3      2911            0.0000000000
     22200      3057  TIP3      H1             13.8851630749      -26.5264205990      -41.0060799763  TIP3      2911            0.0000000000
     22201      3057  TIP3      H2             13.9738448143      -25.0853591351      -41.4432813307  TIP3      2911            0.0000000000
     22202      3058  TIP3      OH2             7.2269964729      -26.4494488966      -34.8273909147  TIP3      2912            0.0000000000
     22203      3058  TIP3      H1              7.9641920651      -26.1155922500      -34.2706451502  TIP3      2912            0.0000000000
     22204      3058  TIP3      H2              7.6704135694      -26.6484499049      -35.6622918631  TIP3      2912            0.0000000000
     22205      3059  TIP3      OH2             8.6789521948      -25.9213587630      -39.3265344670  TIP3      2913            0.0000000000
     22206      3059  TIP3      H1              9.1098178148      -26.1776699115      -40.1644672747  TIP3      2913            0.0000000000
     22207      3059  TIP3      H2              8.2348318819      -25.0936715246      -39.5886602736  TIP3      2913            0.0000000000
     22208      3060  TIP3      OH2            18.7972794814      -21.5317649301      -29.7928837186  TIP3      2914            0.0000000000
     22209      3060  TIP3      H1             19.2863055609      -22.2627445209      -30.2419254302  TIP3      2914            0.0000000000
     22210      3060  TIP3      H2             18.1686792991      -22.0388065250      -29.2306513640  TIP3      2914            0.0000000000
     22211      3061  TIP3      OH2            16.0091544997      -26.3781546083      -34.8205414697  TIP3      2915            0.0000000000
     22212      3061  TIP3      H1             15.0723907344      -26.4697388157      -34.5759279519  TIP3      2915            0.0000000000
     22213      3061  TIP3      H2             16.4781002745      -26.4240979529      -33.9580676348  TIP3      2915            0.0000000000
     22214      3062  TIP3      OH2            10.4434187782      -24.4855847218      -36.0232153207  TIP3      2916            0.0000000000
     22215      3062  TIP3      H1              9.6476222003      -24.2129135011      -36.5446211811  TIP3      2916            0.0000000000
     22216      3062  TIP3      H2             10.5938437850      -25.3842792266      -36.3945892454  TIP3      2916            0.0000000000
     22217      3063  TIP3      OH2            14.3003329293      -24.3726962589      -38.6372794251  TIP3      2917            0.0000000000
     22218      3063  TIP3      H1             15.0938790183      -23.8842292128      -38.3739899807  TIP3      2917            0.0000000000
     22219      3063  TIP3      H2             13.9672928587      -23.8616709343      -39.4123871757  TIP3      2917            0.0000000000
     22220      3064  TIP3      OH2            20.3605891143      -27.0029326735      -31.6694750180  TIP3      2918            0.0000000000
     22221      3064  TIP3      H1             19.8959283981      -27.0467359225      -30.8157931164  TIP3      2918            0.0000000000
     22222      3064  TIP3      H2             19.6180932854      -27.1975269392      -32.2743937241  TIP3      2918            0.0000000000
     22223      3065  TIP3      OH2            13.3137018860      -23.4690877395      -41.0240447207  TIP3      2919            0.0000000000
     22224      3065  TIP3      H1             12.6846101076      -23.4450502041      -41.7573870690  TIP3      2919            0.0000000000
     22225      3065  TIP3      H2             14.0416840770      -22.9018404882      -41.3597465917  TIP3      2919            0.0000000000
     22226      3066  TIP3      OH2            23.3171921888      -11.1491316310      -25.3641664849  TIP3      2920            0.0000000000
     22227      3066  TIP3      H1             23.8225963464      -10.9538192777      -26.1728551411  TIP3      2920            0.0000000000
     22228      3066  TIP3      H2             23.8154064316      -10.6724676364      -24.6847443087  TIP3      2920            0.0000000000
     22229      3067  TIP3      OH2            10.8853091208      -18.7353057907      -25.7894037305  TIP3      2921            0.0000000000
     22230      3067  TIP3      H1             11.5388638606      -18.7335810609      -25.0529846925  TIP3      2921            0.0000000000
     22231      3067  TIP3      H2             10.0711810831      -18.9218385797      -25.2926421882  TIP3      2921            0.0000000000
     22232      3068  TIP3      OH2            16.4323147987      -23.5275470250      -33.3501870317  TIP3      2922            0.0000000000
     22233      3068  TIP3      H1             17.3104014412      -23.9095501092      -33.5130957786  TIP3      2922            0.0000000000
     22234      3068  TIP3      H2             16.1136613164      -24.1249356302      -32.6410351999  TIP3      2922            0.0000000000
     22235      3069  TIP3      OH2            11.4142888665      -26.9778870569      -36.5415722006  TIP3      2923            0.0000000000
     22236      3069  TIP3      H1             10.8459986349      -27.6966224190      -36.1781200712  TIP3      2923            0.0000000000
     22237      3069  TIP3      H2             12.0167218943      -27.4861020764      -37.1015648291  TIP3      2923            0.0000000000
     22238      3070  TIP3      OH2            16.0293820605      -24.6987660324      -30.8696487008  TIP3      2924            0.0000000000
     22239      3070  TIP3      H1             15.2127577999      -24.1989304879      -30.6833632086  TIP3      2924            0.0000000000
     22240      3070  TIP3      H2             16.6443396280      -24.3514340723      -30.2136061547  TIP3      2924            0.0000000000
     22241      3071  TIP3      OH2            16.2826508307      -18.7264252062      -38.5123525931  TIP3      2925            0.0000000000
     22242      3071  TIP3      H1             15.5505550014      -19.2668612094      -38.8824905175  TIP3      2925            0.0000000000
     22243      3071  TIP3      H2             15.8773181926      -18.4545212533      -37.6522761738  TIP3      2925            0.0000000000
     22244      3072  TIP3      OH2            23.4277747113      -19.0521526858      -30.1918687110  TIP3      2926            0.0000000000
     22245      3072  TIP3      H1             24.1453703904      -18.6320810861      -30.7299700385  TIP3      2926            0.0000000000
     22246      3072  TIP3      H2             22.7162725594      -19.1807464148      -30.8509606781  TIP3      2926            0.0000000000
     22247      3073  TIP3      OH2            20.2414355652      -25.9402245266      -41.4335498025  TIP3      2927            0.0000000000
     22248      3073  TIP3      H1             19.2749179631      -25.8245203640      -41.4991494580  TIP3      2927            0.0000000000
     22249      3073  TIP3      H2             20.4447769328      -25.3235389147      -40.7102923770  TIP3      2927            0.0000000000
     22250      3074  TIP3      OH2            17.1656479375      -18.5238804461      -27.6047778747  TIP3      2928            0.0000000000
     22251      3074  TIP3      H1             16.6254883828      -18.7676333706      -26.8361679182  TIP3      2928            0.0000000000
     22252      3074  TIP3      H2             17.2044479564      -17.5549638730      -27.4509362069  TIP3      2928            0.0000000000
     22253      3075  TIP3      OH2            20.7904562819      -24.0895511791      -38.8614728719  TIP3      2929            0.0000000000
     22254      3075  TIP3      H1             21.5265900971      -23.9980949878      -38.2233133933  TIP3      2929            0.0000000000
     22255      3075  TIP3      H2             20.9381590033      -23.3272833611      -39.4431963279  TIP3      2929            0.0000000000
     22256      3076  TIP3      OH2            11.2741885141      -19.2145268345      -33.2792725605  TIP3      2930            0.0000000000
     22257      3076  TIP3      H1             11.7618730902      -19.4262399585      -34.1019882179  TIP3      2930            0.0000000000
     22258      3076  TIP3      H2             11.4308163435      -19.9948879273      -32.7136281991  TIP3      2930            0.0000000000
     22259      3077  TIP3      OH2            18.1719985786      -17.4236427453      -39.9274538654  TIP3      2931            0.0000000000
     22260      3077  TIP3      H1             18.0129316799      -16.5318981616      -39.5554567966  TIP3      2931            0.0000000000
     22261      3077  TIP3      H2             17.4449950040      -17.9527342471      -39.5192554161  TIP3      2931            0.0000000000
     22262      3078  TIP3      OH2             8.4535440719      -21.1227586329      -27.8194663903  TIP3      2932            0.0000000000
     22263      3078  TIP3      H1              8.0768243123      -21.7211257113      -27.1458275461  TIP3      2932            0.0000000000
     22264      3078  TIP3      H2              7.8997185414      -21.3464007386      -28.5892901874  TIP3      2932            0.0000000000
     22265      3079  TIP3      OH2            14.7595731032      -21.3613739140      -25.9926092874  TIP3      2933            0.0000000000
     22266      3079  TIP3      H1             14.3665708416      -21.8442047057      -26.7304029970  TIP3      2933            0.0000000000
     22267      3079  TIP3      H2             15.6049871824      -21.8443962834      -25.8947302533  TIP3      2933            0.0000000000
     22268      3080  TIP3      OH2            20.1581042718      -15.9034854689      -27.2099004398  TIP3      2934            0.0000000000
     22269      3080  TIP3      H1             19.4082068847      -15.8301679448      -27.8100458490  TIP3      2934            0.0000000000
     22270      3080  TIP3      H2             19.7943471592      -15.4128414608      -26.4352587021  TIP3      2934            0.0000000000
     22271      3081  TIP3      OH2            25.4569049164      -23.7177560618      -39.0771401895  TIP3      2935            0.0000000000
     22272      3081  TIP3      H1             24.8115258091      -23.8921796778      -39.7907806206  TIP3      2935            0.0000000000
     22273      3081  TIP3      H2             25.6175655836      -22.7746149226      -39.2805364563  TIP3      2935            0.0000000000
     22274      3082  TIP3      OH2            25.5358205868      -18.1370534107      -26.2607566672  TIP3      2936            0.0000000000
     22275      3082  TIP3      H1             24.7383820011      -17.9276044042      -26.8045226608  TIP3      2936            0.0000000000
     22276      3082  TIP3      H2             26.2137957562      -18.1328523580      -26.9720243396  TIP3      2936            0.0000000000
     22277      3083  TIP3      OH2            23.5458028464      -14.9079290148      -39.0665532450  TIP3      2937            0.0000000000
     22278      3083  TIP3      H1             23.6114778622      -15.6542569867      -38.4547204149  TIP3      2937            0.0000000000
     22279      3083  TIP3      H2             23.9997513318      -15.2209904273      -39.8706800377  TIP3      2937            0.0000000000
     22280      3084  TIP3      OH2            21.1078584411      -20.0625197832      -31.8911742100  TIP3      2938            0.0000000000
     22281      3084  TIP3      H1             20.1877735434      -20.3148543111      -32.0962514445  TIP3      2938            0.0000000000
     22282      3084  TIP3      H2             21.5954116518      -20.7297743680      -32.4209787574  TIP3      2938            0.0000000000
     22283      3085  TIP3      OH2            13.5335676341      -15.8155596451      -35.7385017698  TIP3      2939            0.0000000000
     22284      3085  TIP3      H1             13.7039523609      -14.8622473452      -35.8682646694  TIP3      2939            0.0000000000
     22285      3085  TIP3      H2             12.7710820510      -15.9301678096      -36.3119715782  TIP3      2939            0.0000000000
     22286      3086  TIP3      OH2             9.8162316448      -21.1155769450      -40.9457466504  TIP3      2940            0.0000000000
     22287      3086  TIP3      H1             10.2722018377      -20.5188923539      -40.3124867845  TIP3      2940            0.0000000000
     22288      3086  TIP3      H2              8.8985721243      -21.1039249383      -40.6173598582  TIP3      2940            0.0000000000
     22289      3087  TIP3      OH2            14.9962437208      -18.0531383460      -36.2620705795  TIP3      2941            0.0000000000
     22290      3087  TIP3      H1             14.5594847741      -17.2039295664      -36.0312519760  TIP3      2941            0.0000000000
     22291      3087  TIP3      H2             14.5668240339      -18.6985931375      -35.6816933302  TIP3      2941            0.0000000000
     22292      3088  TIP3      OH2            15.5049188565      -13.8778513962      -29.3715470555  TIP3      2942            0.0000000000
     22293      3088  TIP3      H1             16.2094665683      -13.2242255040      -29.5310585672  TIP3      2942            0.0000000000
     22294      3088  TIP3      H2             15.9368338317      -14.4110744047      -28.6899110087  TIP3      2942            0.0000000000
     22295      3089  TIP3      OH2            13.8897661255      -13.1251674151      -36.6056625097  TIP3      2943            0.0000000000
     22296      3089  TIP3      H1             12.9258120308      -13.1220287273      -36.4152635717  TIP3      2943            0.0000000000
     22297      3089  TIP3      H2             14.1630685619      -12.2630630196      -36.2258466078  TIP3      2943            0.0000000000
     22298      3090  TIP3      OH2            18.6598308469      -17.8061838025      -30.0378704068  TIP3      2944            0.0000000000
     22299      3090  TIP3      H1             18.3203955893      -18.1462040192      -29.1745161073  TIP3      2944            0.0000000000
     22300      3090  TIP3      H2             19.1665883421      -18.5847605694      -30.3399548077  TIP3      2944            0.0000000000
     22301      3091  TIP3      OH2            21.1855431297      -16.7965671410      -40.7084982077  TIP3      2945            0.0000000000
     22302      3091  TIP3      H1             21.5442181120      -17.3391745105      -39.9710510900  TIP3      2945            0.0000000000
     22303      3091  TIP3      H2             20.2543646351      -17.0635388391      -40.6434514208  TIP3      2945            0.0000000000
     22304      3092  TIP3      OH2            22.2389841624      -13.3928128680      -27.8735423793  TIP3      2946            0.0000000000
     22305      3092  TIP3      H1             21.3712802244      -13.7102247666      -28.1743975629  TIP3      2946            0.0000000000
     22306      3092  TIP3      H2             22.3231277766      -12.5866353023      -28.4329683914  TIP3      2946            0.0000000000
     22307      3093  TIP3      OH2            25.8087303073      -12.7294352830      -40.6832757137  TIP3      2947            0.0000000000
     22308      3093  TIP3      H1             26.4421261793      -12.1168773950      -41.1102661629  TIP3      2947            0.0000000000
     22309      3093  TIP3      H2             25.2397089840      -12.0935709564      -40.1990100494  TIP3      2947            0.0000000000
     22310      3094  TIP3      OH2             9.9244753965      -26.4324035848      -28.3244818351  TIP3      2948            0.0000000000
     22311      3094  TIP3      H1              9.3434415618      -26.0398436338      -27.6537388088  TIP3      2948            0.0000000000
     22312      3094  TIP3      H2              9.8319552650      -27.3825004011      -28.1341324335  TIP3      2948            0.0000000000
     22313      3095  TIP3      OH2            22.3118941985      -18.2879623339      -38.7673538202  TIP3      2949            0.0000000000
     22314      3095  TIP3      H1             22.1923064403      -19.1367045669      -38.2726026907  TIP3      2949            0.0000000000
     22315      3095  TIP3      H2             23.2576218555      -18.1141991644      -38.6059217312  TIP3      2949            0.0000000000
     22316      3096  TIP3      OH2             9.5683607080      -14.4865369473      -30.0100119376  TIP3      2950            0.0000000000
     22317      3096  TIP3      H1             10.1417012742      -15.2552283973      -29.8477490883  TIP3      2950            0.0000000000
     22318      3096  TIP3      H2              9.8021257656      -13.8952118651      -29.2735511976  TIP3      2950            0.0000000000
     22319      3097  TIP3      OH2            14.2165495788      -16.4520892400      -39.8826120202  TIP3      2951            0.0000000000
     22320      3097  TIP3      H1             14.8541057657      -16.9283499742      -39.3335578143  TIP3      2951            0.0000000000
     22321      3097  TIP3      H2             14.3697185395      -15.5172849527      -39.5883126793  TIP3      2951            0.0000000000
     22322      3098  TIP3      OH2            10.8306480016      -19.0412895968      -39.4793543918  TIP3      2952            0.0000000000
     22323      3098  TIP3      H1             10.1374459626      -18.5670381819      -38.9618824010  TIP3      2952            0.0000000000
     22324      3098  TIP3      H2             11.2529864665      -18.3025651552      -39.9560932912  TIP3      2952            0.0000000000
     22325      3099  TIP3      OH2            18.8775844323      -26.6523749641      -29.0590148329  TIP3      2953            0.0000000000
     22326      3099  TIP3      H1             19.7250104422      -26.2851739315      -28.7320228264  TIP3      2953            0.0000000000
     22327      3099  TIP3      H2             18.5202244855      -27.1082191643      -28.2696827642  TIP3      2953            0.0000000000
     22328      3100  TIP3      OH2            19.5569757964      -26.8565757781      -37.5693805869  TIP3      2954            0.0000000000
     22329      3100  TIP3      H1             19.3497566601      -26.0712506751      -38.0970913177  TIP3      2954            0.0000000000
     22330      3100  TIP3      H2             19.9995927096      -26.4167611130      -36.8039397140  TIP3      2954            0.0000000000
     22331      3101  TIP3      OH2            17.3699621417      -14.9370950454      -39.0135580734  TIP3      2955            0.0000000000
     22332      3101  TIP3      H1             16.6061206958      -14.3446371333      -38.9159631367  TIP3      2955            0.0000000000
     22333      3101  TIP3      H2             17.8686264941      -14.5080062625      -39.7472790321  TIP3      2955            0.0000000000
     22334      3102  TIP3      OH2            17.0281148118      -24.9318552368      -36.9133279381  TIP3      2956            0.0000000000
     22335      3102  TIP3      H1             17.5896658059      -24.1619214835      -36.7043131971  TIP3      2956            0.0000000000
     22336      3102  TIP3      H2             16.6533161350      -25.1890306125      -36.0433263419  TIP3      2956            0.0000000000
     22337      3103  TIP3      OH2            17.4791359365      -23.5402784846      -28.3436944075  TIP3      2957            0.0000000000
     22338      3103  TIP3      H1             16.8989053083      -23.7203035109      -27.5850152041  TIP3      2957            0.0000000000
     22339      3103  TIP3      H2             17.8876622075      -24.4020763074      -28.5359383834  TIP3      2957            0.0000000000
     22340      3104  TIP3      OH2            17.2438014454      -28.3074540736      -36.7595398837  TIP3      2958            0.0000000000
     22341      3104  TIP3      H1             17.0261226721      -27.6652741649      -36.0504918024  TIP3      2958            0.0000000000
     22342      3104  TIP3      H2             18.1466646393      -28.0053418334      -36.9754062574  TIP3      2958            0.0000000000
     22343      3105  TIP3      OH2            14.4358227840      -13.8327058184      -39.2267838333  TIP3      2959            0.0000000000
     22344      3105  TIP3      H1             14.5851004800      -12.9778793172      -39.6887469901  TIP3      2959            0.0000000000
     22345      3105  TIP3      H2             14.1358420102      -13.4917956517      -38.3585096877  TIP3      2959            0.0000000000
     22346      3106  TIP3      OH2            13.0046577171      -27.0635697267      -39.5334423203  TIP3      2960            0.0000000000
     22347      3106  TIP3      H1             12.6555097017      -26.3472954665      -38.9940114134  TIP3      2960            0.0000000000
     22348      3106  TIP3      H2             13.8990210559      -27.1268233992      -39.1362215068  TIP3      2960            0.0000000000
     22349      3107  TIP3      OH2            23.0056231116      -26.1664746274      -27.2647218782  TIP3      2961            0.0000000000
     22350      3107  TIP3      H1             22.2409714527      -25.6543125757      -27.5887039789  TIP3      2961            0.0000000000
     22351      3107  TIP3      H2             23.5480987681      -26.2122408632      -28.0646170092  TIP3      2961            0.0000000000
     22352      3108  TIP3      OH2            22.1404868959      -22.1885705996      -33.3017788686  TIP3      2962            0.0000000000
     22353      3108  TIP3      H1             21.3271185261      -22.7155619353      -33.2729363791  TIP3      2962            0.0000000000
     22354      3108  TIP3      H2             22.7976634102      -22.7749046089      -32.8595187563  TIP3      2962            0.0000000000
     22355      3109  TIP3      OH2            11.3782025385      -16.4591497167      -40.9292922573  TIP3      2963            0.0000000000
     22356      3109  TIP3      H1             12.1036890757      -16.0216487854      -40.4519273668  TIP3      2963            0.0000000000
     22357      3109  TIP3      H2             11.8849485334      -16.9578826790      -41.5947357236  TIP3      2963            0.0000000000
     22358      3110  TIP3      OH2             9.9003921209      -23.7575960430      -41.6946547066  TIP3      2964            0.0000000000
     22359      3110  TIP3      H1             10.1480673796      -22.8942787933      -41.3104971746  TIP3      2964            0.0000000000
     22360      3110  TIP3      H2              9.1520878518      -23.4865590257      -42.2441916722  TIP3      2964            0.0000000000
     22361      3111  TIP3      OH2            23.1817246949      -13.1176034377      -31.9109189963  TIP3      2965            0.0000000000
     22362      3111  TIP3      H1             23.1148285142      -12.3682495336      -32.5426112803  TIP3      2965            0.0000000000
     22363      3111  TIP3      H2             24.1501227362      -13.0994609733      -31.7503582000  TIP3      2965            0.0000000000
     22364      3112  TIP3      OH2            11.2881484713      -29.4286618677      -32.9079477701  TIP3      2966            0.0000000000
     22365      3112  TIP3      H1             11.0160592322      -28.7934024686      -33.5960078359  TIP3      2966            0.0000000000
     22366      3112  TIP3      H2             11.3945356669      -30.2498104441      -33.4291085763  TIP3      2966            0.0000000000
     22367      3113  TIP3      OH2             8.8619508395      -15.5157530060      -37.3464374952  TIP3      2967            0.0000000000
     22368      3113  TIP3      H1              8.4423627413      -14.8763251454      -36.7626337813  TIP3      2967            0.0000000000
     22369      3113  TIP3      H2              9.1268080743      -14.8919790581      -38.0612745161  TIP3      2967            0.0000000000
     22370      3114  TIP3      OH2             8.4412228456      -12.2997503056      -25.4302881229  TIP3      2968            0.0000000000
     22371      3114  TIP3      H1              9.0900225764      -12.4897845035      -24.7179757001  TIP3      2968            0.0000000000
     22372      3114  TIP3      H2              8.1631145163      -13.2013050401      -25.6446918821  TIP3      2968            0.0000000000
     22373      3115  TIP3      OH2            13.3095947116      -13.4767495853      -24.1461970525  TIP3      2969            0.0000000000
     22374      3115  TIP3      H1             14.2355803845      -13.6943429611      -23.9689149253  TIP3      2969            0.0000000000
     22375      3115  TIP3      H2             13.1758937305      -13.8144845149      -25.0524132713  TIP3      2969            0.0000000000
     22376      3116  TIP3      OH2            18.1575137680      -13.8205619108      -41.4004571068  TIP3      2970            0.0000000000
     22377      3116  TIP3      H1             17.4742236815      -14.2623328569      -41.9518361825  TIP3      2970            0.0000000000
     22378      3116  TIP3      H2             18.7683306350      -13.5135623678      -42.0955362881  TIP3      2970            0.0000000000
     22379      3117  TIP3      OH2            19.4068615797      -14.7622318938      -24.9181857751  TIP3      2971            0.0000000000
     22380      3117  TIP3      H1             19.1314318053      -15.6502455712      -24.5767796197  TIP3      2971            0.0000000000
     22381      3117  TIP3      H2             20.1693598926      -14.6008769780      -24.3293261145  TIP3      2971            0.0000000000
     22382      3118  TIP3      OH2            22.4423334128      -14.4720180872      -42.1895058302  TIP3      2972            0.0000000000
     22383      3118  TIP3      H1             22.0517056018      -15.0831756335      -41.5268521701  TIP3      2972            0.0000000000
     22384      3118  TIP3      H2             23.3495667501      -14.8135216676      -42.1762781096  TIP3      2972            0.0000000000
     22385      3119  TIP3      OH2             8.1749488847      -19.0488339304      -24.5991210550  TIP3      2973            0.0000000000
     22386      3119  TIP3      H1              7.8688801866      -19.9560289734      -24.7431692617  TIP3      2973            0.0000000000
     22387      3119  TIP3      H2              7.7579269481      -18.5976858399      -25.3684468451  TIP3      2973            0.0000000000
     22388      3120  TIP3      OH2            13.0989972483      -18.9098067731      -42.1398353132  TIP3      2974            0.0000000000
     22389      3120  TIP3      H1             13.7062644941      -18.8126529863      -41.3868678091  TIP3      2974            0.0000000000
     22390      3120  TIP3      H2             13.7594708451      -19.1701431499      -42.8216406508  TIP3      2974            0.0000000000
     22391      3121  TIP3      OH2            15.2307407128      -18.7291320930      -25.5781359913  TIP3      2975            0.0000000000
     22392      3121  TIP3      H1             14.8096762283      -18.0925145061      -26.2036845937  TIP3      2975            0.0000000000
     22393      3121  TIP3      H2             14.9590874056      -19.6178872968      -25.9083631807  TIP3      2975            0.0000000000
     22394      3122  TIP3      OH2            20.9018467676      -18.6779953134      -27.5523435731  TIP3      2976            0.0000000000
     22395      3122  TIP3      H1             21.8160657498      -18.3477821866      -27.5162556978  TIP3      2976            0.0000000000
     22396      3122  TIP3      H2             20.4366907466      -17.8309876944      -27.3622340486  TIP3      2976            0.0000000000
     22397      3123  TIP3      OH2             9.4350194980      -21.9602207782      -24.4178508924  TIP3      2977            0.0000000000
     22398      3123  TIP3      H1             10.1865497905      -22.4407214590      -24.0410120958  TIP3      2977            0.0000000000
     22399      3123  TIP3      H2              8.8534358988      -21.7780504594      -23.6741224096  TIP3      2977            0.0000000000
     22400      3124  TIP3      OH2            14.4664623623      -20.3095507319      -39.8447088220  TIP3      2978            0.0000000000
     22401      3124  TIP3      H1             13.6421616068      -20.7187615458      -39.5181536149  TIP3      2978            0.0000000000
     22402      3124  TIP3      H2             14.8327651936      -21.0073354944      -40.4332422637  TIP3      2978            0.0000000000
     22403      3125  TIP3      OH2            12.9104276323      -22.6180071648      -28.6142966641  TIP3      2979            0.0000000000
     22404      3125  TIP3      H1             12.3846852813      -21.9100760207      -28.1756439564  TIP3      2979            0.0000000000
     22405      3125  TIP3      H2             13.6483753612      -22.0682433704      -28.9738003653  TIP3      2979            0.0000000000
     22406      3126  TIP3      OH2            15.5556475764      -22.0642459044      -41.6543566002  TIP3      2980            0.0000000000
     22407      3126  TIP3      H1             15.7848542972      -21.3787205348      -42.3016515775  TIP3      2980            0.0000000000
     22408      3126  TIP3      H2             16.4710581472      -22.2646905687      -41.3266665395  TIP3      2980            0.0000000000
     22409      3127  TIP3      OH2            18.6463998149      -19.4881850430      -24.2769394342  TIP3      2981            0.0000000000
     22410      3127  TIP3      H1             19.4482116810      -19.9181426917      -24.6488909101  TIP3      2981            0.0000000000
     22411      3127  TIP3      H2             17.9580429472      -19.8450954341      -24.8643968513  TIP3      2981            0.0000000000
     22412      3128  TIP3      OH2            24.7911885369      -19.1836082111       42.0507703294  TIP3      2982            0.0000000000
     22413      3128  TIP3      H1             24.5278160644      -18.7005559060       41.2551382280  TIP3      2982            0.0000000000
     22414      3128  TIP3      H2             24.9650759347      -18.4836722704       42.6927204582  TIP3      2982            0.0000000000
     22415      3129  TIP3      OH2            14.0673606786      -24.4040448657      -27.1566382097  TIP3      2983            0.0000000000
     22416      3129  TIP3      H1             14.1071511770      -25.1425810111      -27.7987018744  TIP3      2983            0.0000000000
     22417      3129  TIP3      H2             13.4153479652      -23.7843235608      -27.5748816818  TIP3      2983            0.0000000000
     22418      3130  TIP3      OH2            14.3468233904      -26.4995478528      -29.0619021542  TIP3      2984            0.0000000000
     22419      3130  TIP3      H1             14.9361516615      -26.3361031171      -29.8178041312  TIP3      2984            0.0000000000
     22420      3130  TIP3      H2             13.4833835921      -26.4316406184      -29.5182267542  TIP3      2984            0.0000000000
     22421      3131  TIP3      OH2            15.1200337837      -20.9089261905      -28.9471365093  TIP3      2985            0.0000000000
     22422      3131  TIP3      H1             16.0407707933      -20.6078914771      -28.9210267036  TIP3      2985            0.0000000000
     22423      3131  TIP3      H2             14.7209969600      -20.2080961147      -29.5079776703  TIP3      2985            0.0000000000
     22424      3132  TIP3      OH2            20.7155928174      -20.7283522013      -25.7233797224  TIP3      2986            0.0000000000
     22425      3132  TIP3      H1             20.7839314720      -19.9875620602      -26.3705279002  TIP3      2986            0.0000000000
     22426      3132  TIP3      H2             21.6482343793      -20.9995400610      -25.6304043920  TIP3      2986            0.0000000000
     22427      3133  TIP3      OH2            12.4695960342      -24.4915592154      -24.9075422927  TIP3      2987            0.0000000000
     22428      3133  TIP3      H1             11.5952133680      -24.9272103277      -25.0086585640  TIP3      2987            0.0000000000
     22429      3133  TIP3      H2             12.9776549551      -24.8425339895      -25.6547766330  TIP3      2987            0.0000000000
     22430      3134  TIP3      OH2            15.0497148301      -28.9982607724      -28.2498860150  TIP3      2988            0.0000000000
     22431      3134  TIP3      H1             14.7299694590      -28.1120452867      -28.5356762928  TIP3      2988            0.0000000000
     22432      3134  TIP3      H2             14.4725882492      -29.5818313224      -28.7667963074  TIP3      2988            0.0000000000
     22433      3135  TIP3      OH2            16.2662373769      -24.9491303259      -25.5629013667  TIP3      2989            0.0000000000
     22434      3135  TIP3      H1             15.9998479681      -25.4149558495      -24.7496814988  TIP3      2989            0.0000000000
     22435      3135  TIP3      H2             15.4268156958      -24.9774129595      -26.0707260960  TIP3      2989            0.0000000000
     22436      3136  TIP3      OH2            19.0544450971      -25.4353360257      -25.8347149460  TIP3      2990            0.0000000000
     22437      3136  TIP3      H1             18.0837531453      -25.4008037010      -25.9260946905  TIP3      2990            0.0000000000
     22438      3136  TIP3      H2             19.1241441082      -25.9938426161      -25.0420866071  TIP3      2990            0.0000000000
     22439      3137  TIP3      OH2            21.3326449776      -26.5814409028      -23.6550389478  TIP3      2991            0.0000000000
     22440      3137  TIP3      H1             21.2231767718      -27.5139763539      -23.9488201029  TIP3      2991            0.0000000000
     22441      3137  TIP3      H2             20.5013151121      -26.4539377988      -23.1888120189  TIP3      2991            0.0000000000
     22442      3138  TIP3      OH2            10.2404691495      -26.0617935238      -24.7138788707  TIP3      2992            0.0000000000
     22443      3138  TIP3      H1             10.1167892776      -26.9208341728      -25.1783079569  TIP3      2992            0.0000000000
     22444      3138  TIP3      H2             10.1231271123      -26.3320878986      -23.7734231225  TIP3      2992            0.0000000000
     22445      3139  TIP3      OH2            15.2804213073      -29.7829909056      -25.6640713224  TIP3      2993            0.0000000000
     22446      3139  TIP3      H1             16.2356478422      -29.9607371001      -25.5530353384  TIP3      2993            0.0000000000
     22447      3139  TIP3      H2             15.2584083407      -29.4175863478      -26.5847098416  TIP3      2993            0.0000000000
     22448      3140  TIP3      OH2            15.5478388599      -28.1720709797      -23.5900829144  TIP3      2994            0.0000000000
     22449      3140  TIP3      H1             15.1259325476      -28.6112959863      -24.3499494764  TIP3      2994            0.0000000000
     22450      3140  TIP3      H2             14.9640621261      -27.3874993927      -23.4561240020  TIP3      2994            0.0000000000
     22451      3141  TIP3      OH2            14.7316557555      -11.5227389129      -40.5545011184  TIP3      2995            0.0000000000
     22452      3141  TIP3      H1             15.1409927466      -10.7246846894      -40.1886038003  TIP3      2995            0.0000000000
     22453      3141  TIP3      H2             15.1624684382      -11.6008649489      -41.4235967793  TIP3      2995            0.0000000000
     22454      3142  TIP3      OH2             8.3708365857      -16.8454155469      -41.2208806643  TIP3      2996            0.0000000000
     22455      3142  TIP3      H1              9.3429941897      -16.9075133479      -41.2315869948  TIP3      2996            0.0000000000
     22456      3142  TIP3      H2              8.1394231476      -17.2494954323      -42.0774079408  TIP3      2996            0.0000000000
     22457      3143  TIP3      OH2             7.7866290291      -11.8899889395      -36.2484622076  TIP3      2997            0.0000000000
     22458      3143  TIP3      H1              6.9803149561      -12.2998867632      -36.6289910104  TIP3      2997            0.0000000000
     22459      3143  TIP3      H2              7.9371823581      -12.4889834413      -35.4883135234  TIP3      2997            0.0000000000
     22460      3144  TIP3      OH2             8.4040228980      -13.6201925930      -34.2342325538  TIP3      2998            0.0000000000
     22461      3144  TIP3      H1              7.9973849190      -14.4005834003      -33.8012487182  TIP3      2998            0.0000000000
     22462      3144  TIP3      H2              8.9070227596      -13.2406554159      -33.4759615445  TIP3      2998            0.0000000000
     22463      3145  TIP3      OH2            25.7429355067      -12.8125726675      -30.9550464404  TIP3      2999            0.0000000000
     22464      3145  TIP3      H1             25.8417292379      -12.9537505238      -29.9866969821  TIP3      2999            0.0000000000
     22465      3145  TIP3      H2             26.6604389835      -12.6873489523      -31.2370545290  TIP3      2999            0.0000000000
     22466      3146  TIP3      OH2            25.4565463558      -13.3344631560      -28.3744617751  TIP3      3000            0.0000000000
     22467      3146  TIP3      H1             24.8879659430      -13.9460721855      -28.8946479717  TIP3      3000            0.0000000000
     22468      3146  TIP3      H2             25.7543186803      -13.9185132678      -27.6381493672  TIP3      3000            0.0000000000
     22469      3147  TIP3      OH2            23.4263701610      -17.3730323213      -24.1704965487  TIP3      3001            0.0000000000
     22470      3147  TIP3      H1             23.0828641261      -16.9964262367      -24.9893846396  TIP3      3001            0.0000000000
     22471      3147  TIP3      H2             23.9023091528      -16.6078442696      -23.7868756048  TIP3      3001            0.0000000000
     22472      3148  TIP3      OH2            25.0259349240      -18.7845113585      -38.6591634884  TIP3      3002            0.0000000000
     22473      3148  TIP3      H1             25.8696927579      -18.3756879981      -38.3795314468  TIP3      3002            0.0000000000
     22474      3148  TIP3      H2             24.9636750576      -19.4966649507      -37.9812754557  TIP3      3002            0.0000000000
     22475      3149  TIP3      OH2            25.5404134933      -20.8219979261      -36.8960731010  TIP3      3003            0.0000000000
     22476      3149  TIP3      H1             24.8011322932      -21.0234227820      -36.2779527056  TIP3      3003            0.0000000000
     22477      3149  TIP3      H2             26.2601760517      -20.6389659897      -36.2664491604  TIP3      3003            0.0000000000
     22478      3150  TIP3      OH2            25.6695405807      -18.2468614883      -31.2941446203  TIP3      3004            0.0000000000
     22479      3150  TIP3      H1             26.1191714909      -18.9586958636      -31.8036199481  TIP3      3004            0.0000000000
     22480      3150  TIP3      H2             26.0827228268      -17.4158464922      -31.6258780662  TIP3      3004            0.0000000000
     22481      3151  TIP3      OH2            23.7126035828      -15.2529893512      -29.3737891246  TIP3      3005            0.0000000000
     22482      3151  TIP3      H1             22.9736762281      -14.7164173059      -29.0323825217  TIP3      3005            0.0000000000
     22483      3151  TIP3      H2             23.4399199458      -15.4014233225      -30.3041983565  TIP3      3005            0.0000000000
     22484      3152  TIP3      OH2            25.6040666445      -20.8448310840      -40.3821505949  TIP3      3006            0.0000000000
     22485      3152  TIP3      H1             24.7493993050      -21.0345212027      -40.7917495923  TIP3      3006            0.0000000000
     22486      3152  TIP3      H2             25.3709400598      -20.1114074606      -39.7700608566  TIP3      3006            0.0000000000
     22487      3153  TIP3      OH2            23.9396708909      -23.5133060391      -41.2950290867  TIP3      3007            0.0000000000
     22488      3153  TIP3      H1             24.6700475418      -23.3213735550      -41.9171174738  TIP3      3007            0.0000000000
     22489      3153  TIP3      H2             23.7496999837      -24.4352988253      -41.5680643072  TIP3      3007            0.0000000000
     22490      3154  TIP3      OH2            23.4053485976      -21.7979946339      -35.5648971787  TIP3      3008            0.0000000000
     22491      3154  TIP3      H1             23.3584497079      -22.7384476647      -35.8083765265  TIP3      3008            0.0000000000
     22492      3154  TIP3      H2             23.0269224542      -21.8182277035      -34.6531326916  TIP3      3008            0.0000000000
     22493      3155  TIP3      OH2             8.2071747320      -20.0427114642      -31.7676184633  TIP3      3009            0.0000000000
     22494      3155  TIP3      H1              8.2564266684      -20.3811131595      -32.6921875759  TIP3      3009            0.0000000000
     22495      3155  TIP3      H2              9.1289609568      -20.2289169958      -31.4556031277  TIP3      3009            0.0000000000
     22496      3156  TIP3      OH2            23.9731495157      -20.3976846639      -25.9551696251  TIP3      3010            0.0000000000
     22497      3156  TIP3      H1             24.6764338726      -21.0702218065      -25.9493375988  TIP3      3010            0.0000000000
     22498      3156  TIP3      H2             24.4649254157      -19.5713284973      -26.1196999583  TIP3      3010            0.0000000000
     22499      3157  TIP3      OH2            25.6227851444      -22.6334084541      -25.4528827316  TIP3      3011            0.0000000000
     22500      3157  TIP3      H1             24.7202412680      -22.8224864716      -25.8048600294  TIP3      3011            0.0000000000
     22501      3157  TIP3      H2             26.1285573878      -23.4052625821      -25.7722314992  TIP3      3011            0.0000000000
     22502      3158  TIP3      OH2            23.1530652876      -25.9980572541      -42.2489674072  TIP3      3012            0.0000000000
     22503      3158  TIP3      H1             23.3220968534      -26.9458354035      -42.1491130366  TIP3      3012            0.0000000000
     22504      3158  TIP3      H2             22.1725057619      -25.9876610476      -42.1622280180  TIP3      3012            0.0000000000
     22505      3159  TIP3      OH2            22.9080397397      -24.2154856537      -37.1708186232  TIP3      3013            0.0000000000
     22506      3159  TIP3      H1             23.1205872848      -25.1536856443      -36.9733996350  TIP3      3013            0.0000000000
     22507      3159  TIP3      H2             23.6232470989      -24.0401609261      -37.8008969405  TIP3      3013            0.0000000000
     22508      3160  TIP3      OH2            23.8307816100      -23.8984722537      -32.0365994421  TIP3      3014            0.0000000000
     22509      3160  TIP3      H1             24.7721796485      -23.6847342955      -31.8282249888  TIP3      3014            0.0000000000
     22510      3160  TIP3      H2             23.4649694133      -23.8201601526      -31.1369863699  TIP3      3014            0.0000000000
     22511      3161  TIP3      OH2            23.5058611626      -23.2419658626      -29.3356246848  TIP3      3015            0.0000000000
     22512      3161  TIP3      H1             22.6586352788      -22.9240959791      -28.9598342794  TIP3      3015            0.0000000000
     22513      3161  TIP3      H2             24.0484207752      -22.4149167119      -29.3528424669  TIP3      3015            0.0000000000
     22514      3162  TIP3      OH2             8.1102103654      -25.1098973689      -26.0406609716  TIP3      3016            0.0000000000
     22515      3162  TIP3      H1              8.9783335784      -25.2631009815      -25.6125135324  TIP3      3016            0.0000000000
     22516      3162  TIP3      H2              7.6445055393      -25.9505323594      -25.8626783443  TIP3      3016            0.0000000000
     22517      3163  TIP3      OH2            27.1483593308      -29.5316427625      -23.4804102541  TIP3      3017            0.0000000000
     22518      3163  TIP3      H1             26.4224768472      -29.7648222393      -24.0692482010  TIP3      3017            0.0000000000
     22519      3163  TIP3      H2             27.8076511748      -29.2275169605      -24.1402411777  TIP3      3017            0.0000000000
     22520      3164  TIP3      OH2            23.4569913913      -27.0342140684      -37.1456172212  TIP3      3018            0.0000000000
     22521      3164  TIP3      H1             23.6641277682      -27.5457347453      -36.3379622068  TIP3      3018            0.0000000000
     22522      3164  TIP3      H2             23.1543505366      -27.7416130452      -37.7494486105  TIP3      3018            0.0000000000
     22523      3165  TIP3      OH2             9.1609368670      -26.3606053652      -32.9598885657  TIP3      3019            0.0000000000
     22524      3165  TIP3      H1              9.0560700905      -27.1663994135      -32.4399558744  TIP3      3019            0.0000000000
     22525      3165  TIP3      H2              9.9413793220      -25.9056755813      -32.5831642371  TIP3      3019            0.0000000000
     22526      3166  TIP3      OH2             7.4282539980      -23.5559675401      -31.7354054052  TIP3      3020            0.0000000000
     22527      3166  TIP3      H1              7.9505069073      -23.6028514086      -32.5594338739  TIP3      3020            0.0000000000
     22528      3166  TIP3      H2              8.0804535336      -23.1437086986      -31.1585469462  TIP3      3020            0.0000000000
     22529      3167  TIP3      OH2            25.5135831512      -27.4014152353      -25.5142859839  TIP3      3021            0.0000000000
     22530      3167  TIP3      H1             24.8934819731      -26.8525477755      -25.0107636370  TIP3      3021            0.0000000000
     22531      3167  TIP3      H2             24.9829926650      -27.6720141750      -26.2852196475  TIP3      3021            0.0000000000
     22532      3168  TIP3      OH2            25.7458380001      -27.7821352870      -40.8919216894  TIP3      3022            0.0000000000
     22533      3168  TIP3      H1             25.2431774140      -28.4125304469      -41.4541179975  TIP3      3022            0.0000000000
     22534      3168  TIP3      H2             26.2860925423      -27.3282338675      -41.5693319452  TIP3      3022            0.0000000000
     22535      3169  TIP3      OH2             7.5827039244      -27.7391823395      -37.5345054282  TIP3      3023            0.0000000000
     22536      3169  TIP3      H1              6.6495374953      -27.4318660079      -37.5053171598  TIP3      3023            0.0000000000
     22537      3169  TIP3      H2              7.9579536844      -27.0685520191      -38.1457128198  TIP3      3023            0.0000000000
     22538      3170  TIP3      OH2            22.5928764232      -12.2330106235      -35.6357057760  TIP3      3024            0.0000000000
     22539      3170  TIP3      H1             23.3696195160      -12.4370461175      -36.1923625024  TIP3      3024            0.0000000000
     22540      3170  TIP3      H2             22.9580597031      -11.6270962092      -34.9596169499  TIP3      3024            0.0000000000
     22541      3171  TIP3      OH2             7.8742564990      -28.4271281374      -29.5399927337  TIP3      3025            0.0000000000
     22542      3171  TIP3      H1              7.6111608467      -28.2099447020      -28.6356215047  TIP3      3025            0.0000000000
     22543      3171  TIP3      H2              7.4036344454      -27.7494978214      -30.0649088252  TIP3      3025            0.0000000000
     22544      3172  TIP3      OH2             9.8985156039      -15.6196589277      -25.2707640054  TIP3      3026            0.0000000000
     22545      3172  TIP3      H1              9.1486419438      -15.3892440819      -25.8407165292  TIP3      3026            0.0000000000
     22546      3172  TIP3      H2              9.4929768897      -15.7047148982      -24.3952850757  TIP3      3026            0.0000000000
     22547      3173  TIP3      OH2            12.9231393529      -13.7200024230      -28.3992915976  TIP3      3027            0.0000000000
     22548      3173  TIP3      H1             12.8724098016      -12.9194012437      -28.9686934708  TIP3      3027            0.0000000000
     22549      3173  TIP3      H2             13.7859757485      -14.0656660574      -28.6993071871  TIP3      3027            0.0000000000
     22550      3174  TIP3      OH2            17.2224839491      -13.1514317916      -26.5384668587  TIP3      3028            0.0000000000
     22551      3174  TIP3      H1             17.1675819628      -13.3532777598      -25.5753569464  TIP3      3028            0.0000000000
     22552      3174  TIP3      H2             18.0210990484      -12.5653749885      -26.5605012095  TIP3      3028            0.0000000000
     22553      3175  TIP3      OH2            19.3233346324      -11.4482253361      -26.5595761112  TIP3      3029            0.0000000000
     22554      3175  TIP3      H1             20.1184227949      -11.7947118148      -26.9885461364  TIP3      3029            0.0000000000
     22555      3175  TIP3      H2             19.6607522304      -11.0553250402      -25.7226346054  TIP3      3029            0.0000000000
     22556      3176  TIP3      OH2            24.5600553158      -28.9482191549      -27.8239103357  TIP3      3030            0.0000000000
     22557      3176  TIP3      H1             23.8615296082      -28.4557430432      -28.3140957863  TIP3      3030            0.0000000000
     22558      3176  TIP3      H2             24.4656314586      -29.8396686834      -28.1894939592  TIP3      3030            0.0000000000
     22559      3177  TIP3      OH2            10.1418517907      -11.1934817925      -29.0633002308  TIP3      3031            0.0000000000
     22560      3177  TIP3      H1              9.4540263743      -10.6061033660      -29.4390805198  TIP3      3031            0.0000000000
     22561      3177  TIP3      H2             10.1278378554      -10.9278427835      -28.1285081623  TIP3      3031            0.0000000000
     22562      3178  TIP3      OH2            12.5726845293      -11.6902658937      -30.0416642579  TIP3      3032            0.0000000000
     22563      3178  TIP3      H1             11.6213057653      -11.5414961337      -29.8293807391  TIP3      3032            0.0000000000
     22564      3178  TIP3      H2             12.6880123409      -11.0725614699      -30.7869570273  TIP3      3032            0.0000000000
     22565      3179  TIP3      OH2            17.4083890462      -11.9444375054      -30.7822243453  TIP3      3033            0.0000000000
     22566      3179  TIP3      H1             16.5783368920      -11.5136167970      -31.0496953115  TIP3      3033            0.0000000000
     22567      3179  TIP3      H2             17.7149043711      -11.2716824265      -30.1335225472  TIP3      3033            0.0000000000
     22568      3180  TIP3      OH2            19.5952536912      -13.3050913992      -29.3861620241  TIP3      3034            0.0000000000
     22569      3180  TIP3      H1             18.8576737566      -12.9465240297      -29.9186948530  TIP3      3034            0.0000000000
     22570      3180  TIP3      H2             20.3014286987      -12.7252231270      -29.7204837253  TIP3      3034            0.0000000000
     22571      3181  TIP3      OH2            22.1631438894      -11.6838116283      -29.8738947969  TIP3      3035            0.0000000000
     22572      3181  TIP3      H1             22.3024538563      -10.7771964705      -30.2073875885  TIP3      3035            0.0000000000
     22573      3181  TIP3      H2             22.5023613458      -12.1765144010      -30.6561412424  TIP3      3035            0.0000000000
     22574      3182  TIP3      OH2             9.9176633931      -12.7576768718      -32.1239730014  TIP3      3036            0.0000000000
     22575      3182  TIP3      H1              9.7451783531      -13.3973581689      -31.4008320484  TIP3      3036            0.0000000000
     22576      3182  TIP3      H2             10.8268094584      -13.0267355328      -32.4024999700  TIP3      3036            0.0000000000
     22577      3183  TIP3      OH2            12.1580384829      -13.8973513361      -33.1898244500  TIP3      3037            0.0000000000
     22578      3183  TIP3      H1             12.0005755329      -14.8361356167      -32.9527946269  TIP3      3037            0.0000000000
     22579      3183  TIP3      H2             13.0309744686      -13.7765065630      -32.7530055140  TIP3      3037            0.0000000000
     22580      3184  TIP3      OH2            14.4835455794      -13.9190997235      -31.9436454449  TIP3      3038            0.0000000000
     22581      3184  TIP3      H1             14.6406054006      -14.8612001217      -32.1419100567  TIP3      3038            0.0000000000
     22582      3184  TIP3      H2             14.6916017419      -13.8728495294      -30.9896499819  TIP3      3038            0.0000000000
     22583      3185  TIP3      OH2            17.8194734420      -27.2452341366      -32.9744267488  TIP3      3039            0.0000000000
     22584      3185  TIP3      H1             17.2516325956      -28.0295994825      -32.9214423565  TIP3      3039            0.0000000000
     22585      3185  TIP3      H2             18.3393559894      -27.4988347972      -33.7654157469  TIP3      3039            0.0000000000
     22586      3186  TIP3      OH2            23.2366052984      -29.8157312075      -32.7492775799  TIP3      3040            0.0000000000
     22587      3186  TIP3      H1             23.9866192899      -29.2498330424      -32.9889563475  TIP3      3040            0.0000000000
     22588      3186  TIP3      H2             22.5895861160      -29.1805880140      -32.4112808110  TIP3      3040            0.0000000000
     22589      3187  TIP3      OH2            24.8528047505      -28.8721216925      -35.2309066043  TIP3      3041            0.0000000000
     22590      3187  TIP3      H1             25.3899541584      -29.1901697305      -35.9693811368  TIP3      3041            0.0000000000
     22591      3187  TIP3      H2             25.2525142099      -27.9834114348      -35.0581174967  TIP3      3041            0.0000000000
     22592      3188  TIP3      OH2            10.0873468871      -29.1469652553      -35.6567727527  TIP3      3042            0.0000000000
     22593      3188  TIP3      H1              9.4081038769      -29.3622568316      -36.3307154833  TIP3      3042            0.0000000000
     22594      3188  TIP3      H2             10.6582646308      -29.9518950530      -35.6918580023  TIP3      3042            0.0000000000
     22595      3189  TIP3      OH2             8.9924793494      -29.3307874821      -39.6525443183  TIP3      3043            0.0000000000
     22596      3189  TIP3      H1              9.5504919618      -28.8823513844      -40.3163195900  TIP3      3043            0.0000000000
     22597      3189  TIP3      H2              8.5144218335      -28.5807130682      -39.2683381446  TIP3      3043            0.0000000000
     22598      3190  TIP3      OH2            14.4634551347      -29.6892943296      -35.8577115874  TIP3      3044            0.0000000000
     22599      3190  TIP3      H1             15.2446630279      -29.2054767384      -36.1622847329  TIP3      3044            0.0000000000
     22600      3190  TIP3      H2             14.5969190629      -29.6224758367      -34.8893334969  TIP3      3044            0.0000000000
     22601      3191  TIP3      OH2            19.4759826455      -28.5426985652      -34.6030945347  TIP3      3045            0.0000000000
     22602      3191  TIP3      H1             20.4134811058      -28.6906314042      -34.8770769157  TIP3      3045            0.0000000000
     22603      3191  TIP3      H2             19.4197108552      -29.3153591486      -34.0199548630  TIP3      3045            0.0000000000
     22604      3192  TIP3      OH2            21.7724492624      -28.6189231053      -38.9961366148  TIP3      3046            0.0000000000
     22605      3192  TIP3      H1             21.0359156746      -28.0003324132      -38.8422004615  TIP3      3046            0.0000000000
     22606      3192  TIP3      H2             21.5646419512      -29.3766388663      -38.4300816509  TIP3      3046            0.0000000000
     22607      3193  TIP3      OH2             8.9180944338      -13.3813986135      -38.8909747480  TIP3      3047            0.0000000000
     22608      3193  TIP3      H1              7.9827360392      -13.2841236919      -39.1641878104  TIP3      3047            0.0000000000
     22609      3193  TIP3      H2              9.2187824066      -12.4704314932      -39.0765066364  TIP3      3047            0.0000000000
     22610      3194  TIP3      OH2            10.2585463256      -27.0923370378      -41.2886955869  TIP3      3048            0.0000000000
     22611      3194  TIP3      H1             10.2483656654      -27.4787310299      -42.1724623934  TIP3      3048            0.0000000000
     22612      3194  TIP3      H2             10.9957377787      -26.4702504741      -41.3247238986  TIP3      3048            0.0000000000
     22613      3195  TIP3      OH2            15.5677743745      -27.0055957607      -38.5087707863  TIP3      3049            0.0000000000
     22614      3195  TIP3      H1             16.2259414937      -27.5622967255      -38.0572408494  TIP3      3049            0.0000000000
     22615      3195  TIP3      H2             15.8412954255      -26.1464140506      -38.1285421898  TIP3      3049            0.0000000000
     22616      3196  TIP3      OH2            18.0208117357      -11.2926083466      -40.5708524818  TIP3      3050            0.0000000000
     22617      3196  TIP3      H1             18.8187346152      -11.0394773104      -41.0739263307  TIP3      3050            0.0000000000
     22618      3196  TIP3      H2             18.0282089312      -12.2525165970      -40.7772561063  TIP3      3050            0.0000000000
     22619      3197  TIP3      OH2            24.4047528816      -12.9503466273      -37.4120162873  TIP3      3051            0.0000000000
     22620      3197  TIP3      H1             24.1368540627      -13.6160268321      -38.0918787345  TIP3      3051            0.0000000000
     22621      3197  TIP3      H2             24.3965270238      -12.1481578543      -37.9700075917  TIP3      3051            0.0000000000
     22622      3198  TIP3      OH2             9.8911062479      -28.5696636722      -26.1423209976  TIP3      3052            0.0000000000
     22623      3198  TIP3      H1              9.5535053464      -29.4702025677      -26.2891034836  TIP3      3052            0.0000000000
     22624      3198  TIP3      H2             10.7524606294      -28.7586947173      -25.7071085197  TIP3      3052            0.0000000000
     22625      3199  TIP3      OH2            12.1651648124      -29.1074040081      -24.4840715126  TIP3      3053            0.0000000000
     22626      3199  TIP3      H1             13.0775442040      -29.3305105127      -24.7275746311  TIP3      3053            0.0000000000
     22627      3199  TIP3      H2             11.8885885926      -29.8864732858      -23.9719142283  TIP3      3053            0.0000000000
     22628      3200  TIP3      OH2            10.7307419612      -12.4031452265      -41.6364419607  TIP3      3054            0.0000000000
     22629      3200  TIP3      H1             10.2945420719      -12.2067583328      -40.7956167215  TIP3      3054            0.0000000000
     22630      3200  TIP3      H2             11.2932900764      -13.1538802507      -41.4197955539  TIP3      3054            0.0000000000
     22631      3201  TIP3      OH2            21.2104866335      -29.1795537206      -24.4100166248  TIP3      3055            0.0000000000
     22632      3201  TIP3      H1             20.8719321179      -30.0078317191      -24.0187800996  TIP3      3055            0.0000000000
     22633      3201  TIP3      H2             21.1345166560      -29.3483815717      -25.3580905678  TIP3      3055            0.0000000000
     22634      3202  TIP3      OH2            23.4794336304      -13.9989209345      -25.5496392725  TIP3      3056            0.0000000000
     22635      3202  TIP3      H1             23.1015744519      -13.9015508929      -26.4589115712  TIP3      3056            0.0000000000
     22636      3202  TIP3      H2             23.4866106390      -13.0645085302      -25.2688859138  TIP3      3056            0.0000000000
     22637      3203  TIP3      OH2            29.0596795535      -20.9618547088      -30.0752300553  TIP3      3057            0.0000000000
     22638      3203  TIP3      H1             29.1505380109      -21.8973811304      -29.8045141142  TIP3      3057            0.0000000000
     22639      3203  TIP3      H2             29.9731532545      -20.8006484178      -30.3968889474  TIP3      3057            0.0000000000
     22640      3204  TIP3      OH2            26.3612700364      -23.7098478593      -36.6418896949  TIP3      3058            0.0000000000
     22641      3204  TIP3      H1             26.3273811805      -22.7414094273      -36.5723911607  TIP3      3058            0.0000000000
     22642      3204  TIP3      H2             26.0539947023      -23.8461793295      -37.5697475369  TIP3      3058            0.0000000000
     22643      3205  TIP3      OH2            27.8916686964      -20.8205625855      -34.8371624552  TIP3      3059            0.0000000000
     22644      3205  TIP3      H1             27.6613538024      -21.6907190557      -34.4537362855  TIP3      3059            0.0000000000
     22645      3205  TIP3      H2             28.8555361827      -20.9212587209      -34.9400674733  TIP3      3059            0.0000000000
     22646      3206  TIP3      OH2            28.0516708896      -23.2866683885      -33.5105835726  TIP3      3060            0.0000000000
     22647      3206  TIP3      H1             28.8195758753      -23.2371819650      -32.8982887602  TIP3      3060            0.0000000000
     22648      3206  TIP3      H2             28.4316348390      -23.8278006533      -34.2378263467  TIP3      3060            0.0000000000
     22649      3207  TIP3      OH2            27.5938726461      -17.7695762530      -37.9357536202  TIP3      3061            0.0000000000
     22650      3207  TIP3      H1             27.8987629008      -17.3490791899      -38.7531241337  TIP3      3061            0.0000000000
     22651      3207  TIP3      H2             27.6033491605      -17.0256660506      -37.3011278639  TIP3      3061            0.0000000000
     22652      3208  TIP3      OH2            26.7937407760      -18.2155064608      -28.5553205980  TIP3      3062            0.0000000000
     22653      3208  TIP3      H1             26.4274239969      -18.3650855110      -29.4414117297  TIP3      3062            0.0000000000
     22654      3208  TIP3      H2             27.0126851187      -19.1407427470      -28.2894059432  TIP3      3062            0.0000000000
     22655      3209  TIP3      OH2            26.4934657232      -15.6993081762      -31.8727471028  TIP3      3063            0.0000000000
     22656      3209  TIP3      H1             27.2802406841      -15.4352123177      -31.3595419689  TIP3      3063            0.0000000000
     22657      3209  TIP3      H2             25.8935412081      -14.9439998701      -31.7827333161  TIP3      3063            0.0000000000
     22658      3210  TIP3      OH2            29.1152368546      -16.9784204200      -28.5838211129  TIP3      3064            0.0000000000
     22659      3210  TIP3      H1             29.3884809996      -17.2760634861      -27.6844741925  TIP3      3064            0.0000000000
     22660      3210  TIP3      H2             28.1728956911      -17.2741604260      -28.5338796071  TIP3      3064            0.0000000000
     22661      3211  TIP3      OH2            29.1213642194      -23.7411048830      -28.6922133543  TIP3      3065            0.0000000000
     22662      3211  TIP3      H1             29.5593527246      -23.8827529733      -27.8407217800  TIP3      3065            0.0000000000
     22663      3211  TIP3      H2             29.1808839833      -24.6286047718      -29.0883966406  TIP3      3065            0.0000000000
     22664      3212  TIP3      OH2            26.0891813669      -26.4525283988      -34.9056191119  TIP3      3066            0.0000000000
     22665      3212  TIP3      H1             26.9741709804      -26.2951718652      -34.5139704011  TIP3      3066            0.0000000000
     22666      3212  TIP3      H2             26.2746827652      -26.6069743270      -35.8521070811  TIP3      3066            0.0000000000
     22667      3213  TIP3      OH2            27.7977214553      -25.8513715730      -39.4545553792  TIP3      3067            0.0000000000
     22668      3213  TIP3      H1             28.1924535227      -26.0272707754      -40.3249524357  TIP3      3067            0.0000000000
     22669      3213  TIP3      H2             27.4613345176      -24.9559258052      -39.5843632192  TIP3      3067            0.0000000000
     22670      3214  TIP3      OH2            28.7724848704      -24.3719756378      -35.9182433227  TIP3      3068            0.0000000000
     22671      3214  TIP3      H1             27.8062714883      -24.3001956591      -36.1317225622  TIP3      3068            0.0000000000
     22672      3214  TIP3      H2             28.9344273171      -25.3357567578      -35.8426921418  TIP3      3068            0.0000000000
     22673      3215  TIP3      OH2            29.5409756959      -18.1761176572      -26.3535403041  TIP3      3069            0.0000000000
     22674      3215  TIP3      H1             30.2522652794      -18.0701712602      -25.6906720080  TIP3      3069            0.0000000000
     22675      3215  TIP3      H2             28.8004039357      -18.4262455658      -25.7693396364  TIP3      3069            0.0000000000
     22676      3216  TIP3      OH2            26.8550844119      -20.8511063755      -27.6622976207  TIP3      3070            0.0000000000
     22677      3216  TIP3      H1             27.3136754527      -21.5581690124      -27.1947056098  TIP3      3070            0.0000000000
     22678      3216  TIP3      H2             26.6668256928      -21.2668336814      -28.5258574105  TIP3      3070            0.0000000000
     22679      3217  TIP3      OH2            28.0041326065      -21.0518769979      -41.6759921240  TIP3      3071            0.0000000000
     22680      3217  TIP3      H1             28.3759483459      -20.4029085169      -41.0662054992  TIP3      3071            0.0000000000
     22681      3217  TIP3      H2             27.0635765008      -21.0536006767      -41.4096585888  TIP3      3071            0.0000000000
     22682      3218  TIP3      OH2            28.5146964384      -26.6167182215      -28.5420771473  TIP3      3072            0.0000000000
     22683      3218  TIP3      H1             27.8666504375      -25.9065744902      -28.3878774229  TIP3      3072            0.0000000000
     22684      3218  TIP3      H2             27.8967665669      -27.3514308592      -28.7780219629  TIP3      3072            0.0000000000
     22685      3219  TIP3      OH2            28.4948572561      -14.9754167658      -30.0962905687  TIP3      3073            0.0000000000
     22686      3219  TIP3      H1             28.7737425997      -15.8045536102      -29.6291614885  TIP3      3073            0.0000000000
     22687      3219  TIP3      H2             28.6832611519      -14.3320881352      -29.3818732240  TIP3      3073            0.0000000000
     22688      3220  TIP3      OH2            29.7339769050      -19.1822066301      -39.6556345049  TIP3      3074            0.0000000000
     22689      3220  TIP3      H1             28.9442004859      -19.2165680242      -39.0961945637  TIP3      3074            0.0000000000
     22690      3220  TIP3      H2             30.2310967828      -18.4904569745      -39.1589836915  TIP3      3074            0.0000000000
     22691      3221  TIP3      OH2            28.6368907973      -23.8336380778      -41.7205210797  TIP3      3075            0.0000000000
     22692      3221  TIP3      H1             28.9912427405      -22.9915696427      -41.4136063676  TIP3      3075            0.0000000000
     22693      3221  TIP3      H2             27.8950289593      -23.4979348162      -42.2530199658  TIP3      3075            0.0000000000
     22694      3222  TIP3      OH2            28.6365613024      -29.1101423539      -32.2282790360  TIP3      3076            0.0000000000
     22695      3222  TIP3      H1             28.5413052378      -29.0893918573      -33.1953331120  TIP3      3076            0.0000000000
     22696      3222  TIP3      H2             29.5814206277      -29.3969707719      -32.1819098712  TIP3      3076            0.0000000000
     22697      3223  TIP3      OH2            28.1092405640      -14.5119929969      -36.2559183846  TIP3      3077            0.0000000000
     22698      3223  TIP3      H1             27.3634711012      -14.1326757034      -36.7566820125  TIP3      3077            0.0000000000
     22699      3223  TIP3      H2             28.7125388437      -14.6760554059      -36.9999568492  TIP3      3077            0.0000000000
     22700      3224  TIP3      OH2            27.4149307910      -12.5807060367      -24.9637982256  TIP3      3078            0.0000000000
     22701      3224  TIP3      H1             28.1604492793      -12.7969339798      -24.3686852130  TIP3      3078            0.0000000000
     22702      3224  TIP3      H2             27.2500102855      -13.4281802907      -25.4266480542  TIP3      3078            0.0000000000
     22703      3225  TIP3      OH2            27.5646329232      -19.0990769696      -24.5432964537  TIP3      3079            0.0000000000
     22704      3225  TIP3      H1             27.6032032391      -19.9881833470      -24.9426000022  TIP3      3079            0.0000000000
     22705      3225  TIP3      H2             26.6064061997      -18.9442463863      -24.6169759853  TIP3      3079            0.0000000000
     22706      3226  TIP3      OH2            28.4959881975      -21.7624820593      -25.0151527128  TIP3      3080            0.0000000000
     22707      3226  TIP3      H1             28.9482002142      -22.3355748689      -24.3685836906  TIP3      3080            0.0000000000
     22708      3226  TIP3      H2             27.5698518138      -21.9560834230      -24.7996948629  TIP3      3080            0.0000000000
     22709      3227  TIP3      OH2            29.0065961625      -26.1857276002      -24.7808733264  TIP3      3081            0.0000000000
     22710      3227  TIP3      H1             28.8232458404      -26.9855071960      -25.3122964294  TIP3      3081            0.0000000000
     22711      3227  TIP3      H2             28.8866649117      -26.5463842188      -23.8664145738  TIP3      3081            0.0000000000
     22712      3228  TIP3      OH2            27.5936262979      -16.9450978220      -41.2757781850  TIP3      3082            0.0000000000
     22713      3228  TIP3      H1             28.5609215364      -16.8872956429      -41.2113652702  TIP3      3082            0.0000000000
     22714      3228  TIP3      H2             27.5297888947      -17.2883871316      -42.1781433552  TIP3      3082            0.0000000000
     22715      3229  TIP3      OH2            26.7743593360      -12.0386813705      -36.5926765136  TIP3      3083            0.0000000000
     22716      3229  TIP3      H1             25.8844169061      -12.4520814493      -36.6680743955  TIP3      3083            0.0000000000
     22717      3229  TIP3      H2             26.9418269815      -12.2074278209      -35.6401954737  TIP3      3083            0.0000000000
     22718      3230  TIP3      OH2            26.6202131267      -13.1521892033      -34.2259145398  TIP3      3084            0.0000000000
     22719      3230  TIP3      H1             26.8519823156      -14.0017404399      -34.6443728380  TIP3      3084            0.0000000000
     22720      3230  TIP3      H2             27.0010185673      -13.2494515386      -33.3403858420  TIP3      3084            0.0000000000
     22721      3231  TIP3      OH2            27.0995332878      -20.4265288459      -31.6963102174  TIP3      3085            0.0000000000
     22722      3231  TIP3      H1             27.5860653886      -20.6793641182      -32.4929000182  TIP3      3085            0.0000000000
     22723      3231  TIP3      H2             27.8233349213      -20.3729584815      -31.0255204003  TIP3      3085            0.0000000000
     22724      3232  TIP3      OH2            26.9649370198      -25.1476289836      -26.1449443918  TIP3      3086            0.0000000000
     22725      3232  TIP3      H1             27.7783866092      -25.4135061116      -25.6565110403  TIP3      3086            0.0000000000
     22726      3232  TIP3      H2             26.3461730766      -25.8435713568      -25.8487799263  TIP3      3086            0.0000000000
     22727      3233  TIP3      OH2            28.1100873931      -26.4030024836      -33.0336238242  TIP3      3087            0.0000000000
     22728      3233  TIP3      H1             28.3169399080      -27.2198379020      -32.5438915484  TIP3      3087            0.0000000000
     22729      3233  TIP3      H2             28.9980730573      -26.1183620313      -33.2735555705  TIP3      3087            0.0000000000
     22730      3234  TIP3      OH2            26.4152994193      -23.4808580829      -31.4082749139  TIP3      3088            0.0000000000
     22731      3234  TIP3      H1             26.8472066754      -23.5864232283      -32.2885504493  TIP3      3088            0.0000000000
     22732      3234  TIP3      H2             27.0084028421      -22.8290227286      -31.0153432710  TIP3      3088            0.0000000000
     22733      3235  TIP3      OH2            26.1812047873      -27.4404286599      -37.4212544231  TIP3      3089            0.0000000000
     22734      3235  TIP3      H1             25.2740108431      -27.1053570739      -37.5897394609  TIP3      3089            0.0000000000
     22735      3235  TIP3      H2             26.6127131133      -27.2181758019      -38.2736015941  TIP3      3089            0.0000000000
     22736      3236  TIP3      OH2            26.6529709949      -28.3206084237      -29.4514362098  TIP3      3090            0.0000000000
     22737      3236  TIP3      H1             25.9285396035      -28.3641123729      -28.7938921593  TIP3      3090            0.0000000000
     22738      3236  TIP3      H2             26.2213535463      -27.9438657221      -30.2499327292  TIP3      3090            0.0000000000
     22739      3237  TIP3      OH2            28.4945969577      -15.6176874347      -25.2245613576  TIP3      3091            0.0000000000
     22740      3237  TIP3      H1             27.6593542722      -15.5404914088      -25.7086793819  TIP3      3091            0.0000000000
     22741      3237  TIP3      H2             28.1826876198      -15.7413301649      -24.3136871581  TIP3      3091            0.0000000000
     22742      3238  TIP3      OH2            28.7593774076      -11.7803164609      -28.8939168885  TIP3      3092            0.0000000000
     22743      3238  TIP3      H1             28.3299832971      -11.2654958097      -29.5942865157  TIP3      3092            0.0000000000
     22744      3238  TIP3      H2             28.5140856425      -11.3464737749      -28.0644715440  TIP3      3092            0.0000000000
     22745      3239  TIP3      OH2            28.5623474613      -13.0477824828      -32.0356320181  TIP3      3093            0.0000000000
     22746      3239  TIP3      H1             28.5353107681      -13.7653033055      -31.3622349293  TIP3      3093            0.0000000000
     22747      3239  TIP3      H2             29.5226825814      -12.9920327110      -32.1924426116  TIP3      3093            0.0000000000
     22748      3240  TIP3      OH2            28.5782325260      -29.2538756708      -35.3965143225  TIP3      3094            0.0000000000
     22749      3240  TIP3      H1             27.7518003753      -29.2804894896      -35.9132589245  TIP3      3094            0.0000000000
     22750      3240  TIP3      H2             29.1746253989      -29.7905241950      -35.9418515815  TIP3      3094            0.0000000000
     22751      3241  TIP3      OH2            27.5740675824      -29.5743555480      -39.9684537096  TIP3      3095            0.0000000000
     22752      3241  TIP3      H1             28.1477819788      -29.6096594575      -40.7543641684  TIP3      3095            0.0000000000
     22753      3241  TIP3      H2             26.9660469955      -28.8488676720      -40.2185932784  TIP3      3095            0.0000000000
     22754      3242  TIP3      OH2            27.5893906265      -13.6160034638      -38.8067005347  TIP3      3096            0.0000000000
     22755      3242  TIP3      H1             27.0681225219      -13.5155137637      -39.6312669362  TIP3      3096            0.0000000000
     22756      3242  TIP3      H2             27.4925970094      -12.7234920877      -38.4382698556  TIP3      3096            0.0000000000
     22757      3243  TIP3      OH2           -30.2866820249      -27.4358667413      -40.9513558868  TIP3      3097            0.0000000000
     22758      3243  TIP3      H1            -29.6934362924      -28.1758914406      -40.7287798745  TIP3      3097            0.0000000000
     22759      3243  TIP3      H2            -29.8093996806      -26.6516443562      -40.5875826246  TIP3      3097            0.0000000000
     22760      3244  TIP3      OH2            28.6539944079      -28.9342110699      -25.7147284021  TIP3      3098            0.0000000000
     22761      3244  TIP3      H1             28.2330673316      -29.7657189611      -25.9944618370  TIP3      3098            0.0000000000
     22762      3244  TIP3      H2             29.2812761771      -28.7620262007      -26.4385233773  TIP3      3098            0.0000000000
     22763      3245  TIP3      OH2            29.4698890680      -12.5874032292      -41.9248686468  TIP3      3099            0.0000000000
     22764      3245  TIP3      H1             28.9398574596      -11.7833687108      -41.7904353554  TIP3      3099            0.0000000000
     22765      3245  TIP3      H2             30.3753893322      -12.2621109914      -41.9006702702  TIP3      3099            0.0000000000
     22766      3246  TIP3      OH2           -18.2198519321       -1.1408793746      -35.7723952412  TIP3      3100            0.0000000000
     22767      3246  TIP3      H1            -18.4043836879       -0.1751615611      -35.7116554746  TIP3      3100            0.0000000000
     22768      3246  TIP3      H2            -18.9517778307       -1.4604109012      -36.3215778635  TIP3      3100            0.0000000000
     22769      3247  TIP3      OH2           -19.5394545009       -2.4013164129      -32.3106291200  TIP3      3101            0.0000000000
     22770      3247  TIP3      H1            -19.5825113741       -2.9015588005      -31.4704463417  TIP3      3101            0.0000000000
     22771      3247  TIP3      H2            -20.4379236046       -2.4773886593      -32.6622022350  TIP3      3101            0.0000000000
     22772      3248  TIP3      OH2           -27.1357630988       -2.1903111679      -31.2991031981  TIP3      3102            0.0000000000
     22773      3248  TIP3      H1            -27.1404742604       -2.8565476745      -30.5860192973  TIP3      3102            0.0000000000
     22774      3248  TIP3      H2            -26.5074364197       -1.5646900211      -30.9119149716  TIP3      3102            0.0000000000
     22775      3249  TIP3      OH2           -16.0090120774        0.6561364281      -33.6693576303  TIP3      3103            0.0000000000
     22776      3249  TIP3      H1            -15.9216428760        0.0792526560      -32.9043290268  TIP3      3103            0.0000000000
     22777      3249  TIP3      H2            -15.8941071985        1.5207301933      -33.2493141807  TIP3      3103            0.0000000000
     22778      3250  TIP3      OH2           -26.7647341019        2.0585606593      -31.6952077926  TIP3      3104            0.0000000000
     22779      3250  TIP3      H1            -27.0940031357        1.2992374366      -32.2218869395  TIP3      3104            0.0000000000
     22780      3250  TIP3      H2            -26.0616912873        2.3347672812      -32.2992768425  TIP3      3104            0.0000000000
     22781      3251  TIP3      OH2           -29.2131837456       -4.5297806744      -37.3589851283  TIP3      3105            0.0000000000
     22782      3251  TIP3      H1            -29.6929973640       -3.7687464362      -37.7230259575  TIP3      3105            0.0000000000
     22783      3251  TIP3      H2            -29.9659938218       -5.0671543298      -36.9978912564  TIP3      3105            0.0000000000
     22784      3252  TIP3      OH2           -29.6931425981       -2.3278171340      -34.3288523165  TIP3      3106            0.0000000000
     22785      3252  TIP3      H1            -29.3758530765       -3.2477794681      -34.2092348874  TIP3      3106            0.0000000000
     22786      3252  TIP3      H2            -29.1308799678       -2.0076834633      -35.0491847637  TIP3      3106            0.0000000000
     22787      3253  TIP3      OH2           -18.7286220573        5.9736396368      -34.0851087483  TIP3      3107            0.0000000000
     22788      3253  TIP3      H1            -17.9771345541        5.4697041177      -34.4809978260  TIP3      3107            0.0000000000
     22789      3253  TIP3      H2            -18.8483971593        5.4452732090      -33.2795669457  TIP3      3107            0.0000000000
     22790      3254  TIP3      OH2           -21.4213639145        0.7154150523      -31.0650586784  TIP3      3108            0.0000000000
     22791      3254  TIP3      H1            -21.1581309061        0.4363912737      -31.9463119505  TIP3      3108            0.0000000000
     22792      3254  TIP3      H2            -20.5381259179        0.8441391415      -30.6364935197  TIP3      3108            0.0000000000
     22793      3255  TIP3      OH2           -12.6896219329       -8.0385798998      -31.3513217167  TIP3      3109            0.0000000000
     22794      3255  TIP3      H1            -12.5348243259       -7.6199956930      -30.4691707257  TIP3      3109            0.0000000000
     22795      3255  TIP3      H2            -11.8951804860       -7.7687578996      -31.8392160262  TIP3      3109            0.0000000000
     22796      3256  TIP3      OH2           -17.4586122753       -5.0111852732      -31.0923322793  TIP3      3110            0.0000000000
     22797      3256  TIP3      H1            -17.4131044701       -5.9380295911      -30.8216604637  TIP3      3110            0.0000000000
     22798      3256  TIP3      H2            -17.5558282003       -5.1165747063      -32.0624490489  TIP3      3110            0.0000000000
     22799      3257  TIP3      OH2           -24.6530831112       -7.3015775596      -34.5056833717  TIP3      3111            0.0000000000
     22800      3257  TIP3      H1            -24.4845895732       -6.5144534910      -35.0603587594  TIP3      3111            0.0000000000
     22801      3257  TIP3      H2            -25.0042306132       -7.9246623281      -35.1736660915  TIP3      3111            0.0000000000
     22802      3258  TIP3      OH2           -17.0990613128       -7.1369470403      -36.1445201288  TIP3      3112            0.0000000000
     22803      3258  TIP3      H1            -16.5281305208       -7.7021606165      -35.5903749765  TIP3      3112            0.0000000000
     22804      3258  TIP3      H2            -16.5150662017       -6.3736195105      -36.2834046237  TIP3      3112            0.0000000000
     22805      3259  TIP3      OH2           -28.4754887161       -4.8042429681      -34.1118432816  TIP3      3113            0.0000000000
     22806      3259  TIP3      H1            -27.6954600307       -5.1221100867      -33.6279914539  TIP3      3113            0.0000000000
     22807      3259  TIP3      H2            -28.2380235424       -5.1618842135      -34.9940422926  TIP3      3113            0.0000000000
     22808      3260  TIP3      OH2           -23.9400095515       -3.0212740419      -34.2328982669  TIP3      3114            0.0000000000
     22809      3260  TIP3      H1            -23.0718369010       -3.3347823058      -33.8820601592  TIP3      3114            0.0000000000
     22810      3260  TIP3      H2            -24.1387833537       -3.7526235804      -34.8663240040  TIP3      3114            0.0000000000
     22811      3261  TIP3      OH2           -12.4229312847       -6.9671719040      -28.8783347532  TIP3      3115            0.0000000000
     22812      3261  TIP3      H1            -12.6445435703       -6.0487255094      -29.1565806985  TIP3      3115            0.0000000000
     22813      3261  TIP3      H2            -11.8329432620       -6.7958666222      -28.1303537388  TIP3      3115            0.0000000000
     22814      3262  TIP3      OH2           -25.9936351648       -7.9715560818      -30.4233459755  TIP3      3116            0.0000000000
     22815      3262  TIP3      H1            -26.1515756241       -7.4161341357      -31.2122084894  TIP3      3116            0.0000000000
     22816      3262  TIP3      H2            -26.7044318939       -7.6321197370      -29.8239527605  TIP3      3116            0.0000000000
     22817      3263  TIP3      OH2           -18.9232872155        1.3912368498      -36.5311935651  TIP3      3117            0.0000000000
     22818      3263  TIP3      H1            -19.1449540568        1.3851198320      -37.4823329124  TIP3      3117            0.0000000000
     22819      3263  TIP3      H2            -19.3611171045        2.2089983253      -36.2521160542  TIP3      3117            0.0000000000
     22820      3264  TIP3      OH2           -23.7150241733       -0.5160986148      -30.2921492909  TIP3      3118            0.0000000000
     22821      3264  TIP3      H1            -24.3357105671        0.0902704790      -29.8403433253  TIP3      3118            0.0000000000
     22822      3264  TIP3      H2            -23.0435251174        0.1413251061      -30.5749150234  TIP3      3118            0.0000000000
     22823      3265  TIP3      OH2           -14.8459796781       -7.6122018109      -34.2238227669  TIP3      3119            0.0000000000
     22824      3265  TIP3      H1            -15.5757188990       -7.6420987973      -33.5900456988  TIP3      3119            0.0000000000
     22825      3265  TIP3      H2            -14.1008314877       -7.2746985409      -33.7017554847  TIP3      3119            0.0000000000
     22826      3266  TIP3      OH2           -26.2178506172       -6.2232025682      -32.5438750676  TIP3      3120            0.0000000000
     22827      3266  TIP3      H1            -25.6254117231       -5.5949540536      -32.0740348400  TIP3      3120            0.0000000000
     22828      3266  TIP3      H2            -25.5897537365       -6.6213506673      -33.2024528007  TIP3      3120            0.0000000000
     22829      3267  TIP3      OH2           -25.0052286916        1.7921897751      -29.5374854523  TIP3      3121            0.0000000000
     22830      3267  TIP3      H1            -25.5262986654        2.1560582469      -30.2814815325  TIP3      3121            0.0000000000
     22831      3267  TIP3      H2            -25.7621064977        1.6420808589      -28.9199621950  TIP3      3121            0.0000000000
     22832      3268  TIP3      OH2           -28.9987360500        1.2749030737      -38.8673559631  TIP3      3122            0.0000000000
     22833      3268  TIP3      H1            -28.9543163506        1.8815124266      -39.6337093514  TIP3      3122            0.0000000000
     22834      3268  TIP3      H2            -28.6477675829        1.8741086195      -38.1526831638  TIP3      3122            0.0000000000
     22835      3269  TIP3      OH2           -15.3486519542        2.8356074474      -31.8232881698  TIP3      3123            0.0000000000
     22836      3269  TIP3      H1            -16.2691741284        3.1010291208      -31.5921669107  TIP3      3123            0.0000000000
     22837      3269  TIP3      H2            -15.0327933347        3.7031695876      -32.1431112076  TIP3      3123            0.0000000000
     22838      3270  TIP3      OH2           -15.2131511253       -8.5813712225      -30.6157504063  TIP3      3124            0.0000000000
     22839      3270  TIP3      H1            -15.7401398399       -8.3503320862      -31.3979897081  TIP3      3124            0.0000000000
     22840      3270  TIP3      H2            -14.3205800138       -8.3138511542      -30.9140164314  TIP3      3124            0.0000000000
     22841      3271  TIP3      OH2           -22.5189028236      -11.0718875785      -32.7380734153  TIP3      3125            0.0000000000
     22842      3271  TIP3      H1            -23.0482937242      -11.8948881135      -32.7427769460  TIP3      3125            0.0000000000
     22843      3271  TIP3      H2            -23.2397382270      -10.4257868054      -32.5187369474  TIP3      3125            0.0000000000
     22844      3272  TIP3      OH2           -16.6165268324        4.5223702963      -35.0460069733  TIP3      3126            0.0000000000
     22845      3272  TIP3      H1            -16.5048968486        3.7614043976      -35.6552699408  TIP3      3126            0.0000000000
     22846      3272  TIP3      H2            -15.8333891649        5.0780508948      -35.2660526377  TIP3      3126            0.0000000000
     22847      3273  TIP3      OH2           -15.9360304660        2.3210424936      -36.5627872591  TIP3      3127            0.0000000000
     22848      3273  TIP3      H1            -16.1555542564        1.7407262139      -37.3100783578  TIP3      3127            0.0000000000
     22849      3273  TIP3      H2            -15.9617675937        1.6978859263      -35.8177758084  TIP3      3127            0.0000000000
     22850      3274  TIP3      OH2           -14.3287405941        1.2016259793      -27.6520178305  TIP3      3128            0.0000000000
     22851      3274  TIP3      H1            -14.2411510631        0.7048062911      -28.5045087450  TIP3      3128            0.0000000000
     22852      3274  TIP3      H2            -14.3570235243        2.1186596364      -27.9978136993  TIP3      3128            0.0000000000
     22853      3275  TIP3      OH2           -19.7566674044       -1.9729976435      -38.2923896501  TIP3      3129            0.0000000000
     22854      3275  TIP3      H1            -20.4112610607       -1.2622510473      -38.4865782052  TIP3      3129            0.0000000000
     22855      3275  TIP3      H2            -18.9365666285       -1.6248437174      -38.6932753638  TIP3      3129            0.0000000000
     22856      3276  TIP3      OH2           -19.7520540124       -2.7785048971      -41.0187085403  TIP3      3130            0.0000000000
     22857      3276  TIP3      H1            -19.1338328094       -2.6911692131      -40.2694850895  TIP3      3130            0.0000000000
     22858      3276  TIP3      H2            -19.6399519577       -3.7109151327      -41.2448471920  TIP3      3130            0.0000000000
     22859      3277  TIP3      OH2           -12.3723724735       -2.2393700684      -29.8405333829  TIP3      3131            0.0000000000
     22860      3277  TIP3      H1            -13.1131528313       -1.6336190399      -30.0276032417  TIP3      3131            0.0000000000
     22861      3277  TIP3      H2            -11.7401146867       -1.9202710972      -30.5254326415  TIP3      3131            0.0000000000
     22862      3278  TIP3      OH2           -15.7868513036       -1.4499736938      -36.8988423683  TIP3      3132            0.0000000000
     22863      3278  TIP3      H1            -16.6445601222       -1.4123817603      -36.4009485895  TIP3      3132            0.0000000000
     22864      3278  TIP3      H2            -15.3245308484       -2.1854177013      -36.4335394004  TIP3      3132            0.0000000000
     22865      3279  TIP3      OH2           -16.0962248328       -3.8331136996      -28.0451739725  TIP3      3133            0.0000000000
     22866      3279  TIP3      H1            -16.1479319220       -2.9221104173      -27.6971610286  TIP3      3133            0.0000000000
     22867      3279  TIP3      H2            -16.7555191577       -3.7592575899      -28.7598898130  TIP3      3133            0.0000000000
     22868      3280  TIP3      OH2           -24.3096286595       -1.1711207774      -36.0694484266  TIP3      3134            0.0000000000
     22869      3280  TIP3      H1            -24.7703492632       -1.7729369487      -36.6988739854  TIP3      3134            0.0000000000
     22870      3280  TIP3      H2            -24.0416755133       -1.7872315278      -35.3549613917  TIP3      3134            0.0000000000
     22871      3281  TIP3      OH2           -23.1092816214        2.4425317293      -32.3565986956  TIP3      3135            0.0000000000
     22872      3281  TIP3      H1            -22.9166110514        2.3557695184      -33.2978882208  TIP3      3135            0.0000000000
     22873      3281  TIP3      H2            -22.4766864600        1.8346265097      -31.9388174182  TIP3      3135            0.0000000000
     22874      3282  TIP3      OH2           -24.3360140999       -2.7110960436      -31.6389009085  TIP3      3136            0.0000000000
     22875      3282  TIP3      H1            -24.1609860926       -2.5558748626      -32.5968262111  TIP3      3136            0.0000000000
     22876      3282  TIP3      H2            -23.9942573990       -1.8948529256      -31.1849394504  TIP3      3136            0.0000000000
     22877      3283  TIP3      OH2           -17.8291583416        3.2880754738      -30.9484090990  TIP3      3137            0.0000000000
     22878      3283  TIP3      H1            -18.1516988186        3.8774875575      -30.2423896474  TIP3      3137            0.0000000000
     22879      3283  TIP3      H2            -17.9748680262        2.4062591845      -30.5437533545  TIP3      3137            0.0000000000
     22880      3284  TIP3      OH2           -23.3565468061        2.2544783565      -27.3980640779  TIP3      3138            0.0000000000
     22881      3284  TIP3      H1            -24.1836713427        2.6730243118      -27.0894145220  TIP3      3138            0.0000000000
     22882      3284  TIP3      H2            -23.6957264209        1.9811412767      -28.2780883762  TIP3      3138            0.0000000000
     22883      3285  TIP3      OH2           -17.1986958060       -2.2909004654      -39.2220832426  TIP3      3139            0.0000000000
     22884      3285  TIP3      H1            -16.4856362262       -1.9553545192      -38.6395848234  TIP3      3139            0.0000000000
     22885      3285  TIP3      H2            -16.9590146764       -1.8953162325      -40.0910863580  TIP3      3139            0.0000000000
     22886      3286  TIP3      OH2           -26.3133582298       -1.8245559762      -28.2202706594  TIP3      3140            0.0000000000
     22887      3286  TIP3      H1            -26.1869572081       -1.3555001382      -27.3744320101  TIP3      3140            0.0000000000
     22888      3286  TIP3      H2            -27.2778191299       -1.7232158139      -28.2764058691  TIP3      3140            0.0000000000
     22889      3287  TIP3      OH2           -19.8597046311        4.6657236784      -36.4168092772  TIP3      3141            0.0000000000
     22890      3287  TIP3      H1            -19.7264086293        5.2780615322      -35.6790585429  TIP3      3141            0.0000000000
     22891      3287  TIP3      H2            -20.3094149687        5.2415944885      -37.0581343170  TIP3      3141            0.0000000000
     22892      3288  TIP3      OH2           -25.4688622370        3.7372016415      -26.0960085466  TIP3      3142            0.0000000000
     22893      3288  TIP3      H1            -25.3395987763        4.3112638587      -26.8853893426  TIP3      3142            0.0000000000
     22894      3288  TIP3      H2            -26.4492002909        3.6832914242      -26.1143135881  TIP3      3142            0.0000000000
     22895      3289  TIP3      OH2           -13.4429956846      -10.7789455152      -39.1993886154  TIP3      3143            0.0000000000
     22896      3289  TIP3      H1            -14.4226175967      -10.7492897419      -39.2785156760  TIP3      3143            0.0000000000
     22897      3289  TIP3      H2            -13.2280389023       -9.9600499535      -39.6763638953  TIP3      3143            0.0000000000
     22898      3290  TIP3      OH2           -25.6940365932       -2.5248636593      -38.0087586744  TIP3      3144            0.0000000000
     22899      3290  TIP3      H1            -26.0861257067       -1.6564938920      -38.2606990160  TIP3      3144            0.0000000000
     22900      3290  TIP3      H2            -26.4442608383       -3.1259628570      -38.0029718794  TIP3      3144            0.0000000000
     22901      3291  TIP3      OH2           -12.7785545407        3.5455777728      -41.4567521918  TIP3      3145            0.0000000000
     22902      3291  TIP3      H1            -12.4333642583        4.4229564208      -41.2072751844  TIP3      3145            0.0000000000
     22903      3291  TIP3      H2            -11.9499914886        3.0168931535      -41.4193232509  TIP3      3145            0.0000000000
     22904      3292  TIP3      OH2           -28.8113360480        0.1549485550      -28.9374532053  TIP3      3146            0.0000000000
     22905      3292  TIP3      H1            -29.5040663824        0.5013590279      -29.5210338905  TIP3      3146            0.0000000000
     22906      3292  TIP3      H2            -29.2630221398       -0.6171241638      -28.5332260919  TIP3      3146            0.0000000000
     22907      3293  TIP3      OH2           -29.7055879867        3.2166897147      -31.7373588027  TIP3      3147            0.0000000000
     22908      3293  TIP3      H1            -29.8317094990        2.4314319452      -32.2877338267  TIP3      3147            0.0000000000
     22909      3293  TIP3      H2            -28.7582670978        3.3778438979      -31.8912785123  TIP3      3147            0.0000000000
     22910      3294  TIP3      OH2           -11.2026964982        3.6029815374      -27.1942025781  TIP3      3148            0.0000000000
     22911      3294  TIP3      H1            -11.6191915922        3.0070151280      -26.5557217019  TIP3      3148            0.0000000000
     22912      3294  TIP3      H2            -11.6955070041        4.4243649763      -27.0306603394  TIP3      3148            0.0000000000
     22913      3295  TIP3      OH2           -20.7381201419        3.2388390746      -27.4343375569  TIP3      3149            0.0000000000
     22914      3295  TIP3      H1            -20.6260307989        4.1265826885      -27.0569526122  TIP3      3149            0.0000000000
     22915      3295  TIP3      H2            -21.6900664291        3.0304638851      -27.3125283020  TIP3      3149            0.0000000000
     22916      3296  TIP3      OH2           -20.4728256390        6.9803828128      -38.0695512915  TIP3      3150            0.0000000000
     22917      3296  TIP3      H1            -20.4629513269        7.2029865153      -39.0332231633  TIP3      3150            0.0000000000
     22918      3296  TIP3      H2            -20.3793536712        7.8764237868      -37.7059496568  TIP3      3150            0.0000000000
     22919      3297  TIP3      OH2           -26.6250922020        5.9323861481      -35.8107408296  TIP3      3151            0.0000000000
     22920      3297  TIP3      H1            -26.3261657029        5.9111897417      -34.8737040112  TIP3      3151            0.0000000000
     22921      3297  TIP3      H2            -27.3608372678        5.2983636268      -35.7758637217  TIP3      3151            0.0000000000
     22922      3298  TIP3      OH2           -17.1337698514        6.4816706728      -40.6892462540  TIP3      3152            0.0000000000
     22923      3298  TIP3      H1            -16.5792568283        5.6944115720      -40.7859864598  TIP3      3152            0.0000000000
     22924      3298  TIP3      H2            -17.3472338989        6.4860327151      -39.7371813585  TIP3      3152            0.0000000000
     22925      3299  TIP3      OH2           -17.5073954901        6.1053275395      -37.9772390043  TIP3      3153            0.0000000000
     22926      3299  TIP3      H1            -18.4109032782        6.2766085774      -37.6654510190  TIP3      3153            0.0000000000
     22927      3299  TIP3      H2            -17.4017217689        5.1766785141      -37.7282899606  TIP3      3153            0.0000000000
     22928      3300  TIP3      OH2           -14.8257767003       -5.1125201167      -25.7532218499  TIP3      3154            0.0000000000
     22929      3300  TIP3      H1            -15.1706500794       -4.6043495801      -26.5160566477  TIP3      3154            0.0000000000
     22930      3300  TIP3      H2            -14.6882563789       -5.9917074702      -26.1751225572  TIP3      3154            0.0000000000
     22931      3301  TIP3      OH2           -27.0463348504        1.7687379558      -27.8741892064  TIP3      3155            0.0000000000
     22932      3301  TIP3      H1            -26.9024292030        1.3936782110      -26.9851651159  TIP3      3155            0.0000000000
     22933      3301  TIP3      H2            -27.8028757772        1.2279261418      -28.2125503332  TIP3      3155            0.0000000000
     22934      3302  TIP3      OH2           -24.5644728939       -9.5344700622      -32.0244812997  TIP3      3156            0.0000000000
     22935      3302  TIP3      H1            -25.4194006728       -9.5602430815      -32.5091603054  TIP3      3156            0.0000000000
     22936      3302  TIP3      H2            -24.8534417924       -9.0300780565      -31.2375495685  TIP3      3156            0.0000000000
     22937      3303  TIP3      OH2           -20.0315722662       -9.6037679623      -28.0235077365  TIP3      3157            0.0000000000
     22938      3303  TIP3      H1            -19.4397631425      -10.3685302143      -27.8725189580  TIP3      3157            0.0000000000
     22939      3303  TIP3      H2            -20.7615588244      -10.0040491887      -28.5478304169  TIP3      3157            0.0000000000
     22940      3304  TIP3      OH2           -17.0374065378       -6.4310949475      -27.4926370374  TIP3      3158            0.0000000000
     22941      3304  TIP3      H1            -17.7712825300       -6.6597217795      -26.8785626868  TIP3      3158            0.0000000000
     22942      3304  TIP3      H2            -16.9491469366       -5.4679196583      -27.4287172523  TIP3      3158            0.0000000000
     22943      3305  TIP3      OH2           -16.3489622425       -1.1343969725      -41.4540770323  TIP3      3159            0.0000000000
     22944      3305  TIP3      H1            -16.0128748385       -1.1277353896      -42.3601774487  TIP3      3159            0.0000000000
     22945      3305  TIP3      H2            -15.9932228287       -0.3057404907      -41.0920524132  TIP3      3159            0.0000000000
     22946      3306  TIP3      OH2           -20.2576983184       -7.0684318231      -41.3889963586  TIP3      3160            0.0000000000
     22947      3306  TIP3      H1            -20.6180560958       -7.3975234944      -40.5499795373  TIP3      3160            0.0000000000
     22948      3306  TIP3      H2            -20.8917218045       -7.3567098278      -42.0670689822  TIP3      3160            0.0000000000
     22949      3307  TIP3      OH2           -24.6295152162       -5.0994713966      -30.6562587437  TIP3      3161            0.0000000000
     22950      3307  TIP3      H1            -25.4183300719       -4.8918079370      -30.1145861198  TIP3      3161            0.0000000000
     22951      3307  TIP3      H2            -24.4812471817       -4.2133391772      -31.0785036809  TIP3      3161            0.0000000000
     22952      3308  TIP3      OH2           -24.5463799819       -4.9885487507      -35.9314910900  TIP3      3162            0.0000000000
     22953      3308  TIP3      H1            -25.5263988079       -5.0682753951      -35.9442659045  TIP3      3162            0.0000000000
     22954      3308  TIP3      H2            -24.3216715048       -5.2969441712      -36.8428886940  TIP3      3162            0.0000000000
     22955      3309  TIP3      OH2           -18.9401189071       -4.0557949443      -36.7637303224  TIP3      3163            0.0000000000
     22956      3309  TIP3      H1            -19.3627362542       -3.3244597102      -37.2690908004  TIP3      3163            0.0000000000
     22957      3309  TIP3      H2            -18.4072534477       -4.4709493356      -37.4789102114  TIP3      3163            0.0000000000
     22958      3310  TIP3      OH2           -20.6327950195       -3.7490488795      -25.1238175338  TIP3      3164            0.0000000000
     22959      3310  TIP3      H1            -20.5946148226       -4.7110705168      -24.9847099939  TIP3      3164            0.0000000000
     22960      3310  TIP3      H2            -19.8029409290       -3.4482828732      -24.7210590843  TIP3      3164            0.0000000000
     22961      3311  TIP3      OH2           -17.8133939563       -4.4424855624      -33.8807115763  TIP3      3165            0.0000000000
     22962      3311  TIP3      H1            -18.1308056416       -3.7092259677      -34.4476146788  TIP3      3165            0.0000000000
     22963      3311  TIP3      H2            -18.0559286401       -5.2037396474      -34.4341860726  TIP3      3165            0.0000000000
     22964      3312  TIP3      OH2           -26.9942324393       -4.7392253136      -29.3643607089  TIP3      3166            0.0000000000
     22965      3312  TIP3      H1            -26.8737043197       -4.2422788524      -28.5452013559  TIP3      3166            0.0000000000
     22966      3312  TIP3      H2            -27.4470162443       -5.5377896485      -29.0212666744  TIP3      3166            0.0000000000
     22967      3313  TIP3      OH2           -23.5787491280       -7.1832129288      -41.7928725743  TIP3      3167            0.0000000000
     22968      3313  TIP3      H1            -23.9294966945       -7.7249117952      -41.0588520574  TIP3      3167            0.0000000000
     22969      3313  TIP3      H2            -23.6816367862       -6.2819888553      -41.4240501472  TIP3      3167            0.0000000000
     22970      3314  TIP3      OH2           -29.8113492267       -7.7410197247      -35.0198625193  TIP3      3168            0.0000000000
     22971      3314  TIP3      H1            -29.1980448339       -7.6658155315      -34.2701290289  TIP3      3168            0.0000000000
     22972      3314  TIP3      H2            -30.1955084109       -8.6291916397      -34.8666315695  TIP3      3168            0.0000000000
     22973      3315  TIP3      OH2           -29.2059836093       -7.0806472867      -39.7167800161  TIP3      3169            0.0000000000
     22974      3315  TIP3      H1            -28.3454612737       -7.1500687740      -40.1802541874  TIP3      3169            0.0000000000
     22975      3315  TIP3      H2            -29.1390050884       -6.1919351259      -39.3518584054  TIP3      3169            0.0000000000
     22976      3316  TIP3      OH2           -18.9982054589       -3.3157513723      -29.6756295281  TIP3      3170            0.0000000000
     22977      3316  TIP3      H1            -18.3635373547       -3.9099693831      -30.1270579503  TIP3      3170            0.0000000000
     22978      3316  TIP3      H2            -19.4920878911       -3.9442237876      -29.1046353607  TIP3      3170            0.0000000000
     22979      3317  TIP3      OH2           -21.6090278847       -7.5096430761      -34.6780793511  TIP3      3171            0.0000000000
     22980      3317  TIP3      H1            -22.4768475103       -7.4575888629      -34.2407742661  TIP3      3171            0.0000000000
     22981      3317  TIP3      H2            -21.1113931910       -8.1033950275      -34.0789362960  TIP3      3171            0.0000000000
     22982      3318  TIP3      OH2           -26.9974032368       -5.7537460447      -36.1207459731  TIP3      3172            0.0000000000
     22983      3318  TIP3      H1            -27.5624311909       -5.4480732084      -36.8595066181  TIP3      3172            0.0000000000
     22984      3318  TIP3      H2            -26.6781137855       -6.6324189243      -36.4223968970  TIP3      3172            0.0000000000
     22985      3319  TIP3      OH2           -23.8869258009       -5.4921278724      -38.4736779930  TIP3      3173            0.0000000000
     22986      3319  TIP3      H1            -22.9948236951       -5.1780932172      -38.2685265736  TIP3      3173            0.0000000000
     22987      3319  TIP3      H2            -24.0925678408       -4.9763993903      -39.2938646900  TIP3      3173            0.0000000000
     22988      3320  TIP3      OH2           -17.2893718986       -7.8276662580      -32.3543870534  TIP3      3174            0.0000000000
     22989      3320  TIP3      H1            -17.8761282135       -7.7924349711      -31.5719835054  TIP3      3174            0.0000000000
     22990      3320  TIP3      H2            -17.5199766169       -8.6993178276      -32.7146571256  TIP3      3174            0.0000000000
     22991      3321  TIP3      OH2           -24.4196325211       -4.6997638166      -40.9697121031  TIP3      3175            0.0000000000
     22992      3321  TIP3      H1            -25.1921385417       -4.7510956868      -41.5578806384  TIP3      3175            0.0000000000
     22993      3321  TIP3      H2            -23.8249424754       -4.0649383008      -41.4312890300  TIP3      3175            0.0000000000
     22994      3322  TIP3      OH2           -14.6323539160        7.3653909476      -24.9494402320  TIP3      3176            0.0000000000
     22995      3322  TIP3      H1            -14.3664165168        8.0145160100      -25.6429593524  TIP3      3176            0.0000000000
     22996      3322  TIP3      H2            -13.7780391980        7.3689931186      -24.4601999858  TIP3      3176            0.0000000000
     22997      3323  TIP3      OH2           -25.8492782463        0.1125481315      -26.0278667094  TIP3      3177            0.0000000000
     22998      3323  TIP3      H1            -25.3313230962        0.6394024450      -25.4036501809  TIP3      3177            0.0000000000
     22999      3323  TIP3      H2            -26.7125216363        0.1060237970      -25.5570921658  TIP3      3177            0.0000000000
     23000      3324  TIP3      OH2           -21.7860435537       -4.0412112857      -33.0354499013  TIP3      3178            0.0000000000
     23001      3324  TIP3      H1            -20.8684793251       -4.3504705405      -33.1070381930  TIP3      3178            0.0000000000
     23002      3324  TIP3      H2            -22.1234968899       -4.5583176663      -32.2856964892  TIP3      3178            0.0000000000
     23003      3325  TIP3      OH2           -25.9804843156       -8.5310803558      -36.6330386557  TIP3      3179            0.0000000000
     23004      3325  TIP3      H1            -26.6779004114       -9.0535206113      -36.1828138935  TIP3      3179            0.0000000000
     23005      3325  TIP3      H2            -25.4161443345       -9.2418243405      -36.9833589410  TIP3      3179            0.0000000000
     23006      3326  TIP3      OH2           -22.3006796668       -6.1800120551      -30.3509010887  TIP3      3180            0.0000000000
     23007      3326  TIP3      H1            -23.1618311776       -5.7202388033      -30.4773455762  TIP3      3180            0.0000000000
     23008      3326  TIP3      H2            -21.7392792520       -5.4801517080      -29.9941744963  TIP3      3180            0.0000000000
     23009      3327  TIP3      OH2           -21.4657266013        0.0502424036      -38.3465535793  TIP3      3181            0.0000000000
     23010      3327  TIP3      H1            -22.2169444278       -0.4168007542      -38.7705111725  TIP3      3181            0.0000000000
     23011      3327  TIP3      H2            -21.8823772498        0.4169097364      -37.5338460339  TIP3      3181            0.0000000000
     23012      3328  TIP3      OH2           -14.2593681887       -0.0569410644      -30.0045690712  TIP3      3182            0.0000000000
     23013      3328  TIP3      H1            -13.7740555506        0.3018772701      -30.7898477097  TIP3      3182            0.0000000000
     23014      3328  TIP3      H2            -15.0578827534       -0.4290112111      -30.4256649546  TIP3      3182            0.0000000000
     23015      3329  TIP3      OH2           -17.6235455603       -6.9379572560      -40.8932145898  TIP3      3183            0.0000000000
     23016      3329  TIP3      H1            -18.5338061926       -6.8587044682      -41.2545706225  TIP3      3183            0.0000000000
     23017      3329  TIP3      H2            -17.5809123217       -6.1275317564      -40.3571484278  TIP3      3183            0.0000000000
     23018      3330  TIP3      OH2           -20.2558980169        0.3981226032      -27.1347774682  TIP3      3184            0.0000000000
     23019      3330  TIP3      H1            -20.8633236365        0.1045003657      -26.4374095921  TIP3      3184            0.0000000000
     23020      3330  TIP3      H2            -20.5482977853        1.3138368632      -27.2880020689  TIP3      3184            0.0000000000
     23021      3331  TIP3      OH2           -17.4281753623       -4.9082153431      -38.8806749885  TIP3      3185            0.0000000000
     23022      3331  TIP3      H1            -16.6150290114       -5.1329306203      -38.3906429822  TIP3      3185            0.0000000000
     23023      3331  TIP3      H2            -17.2844687055       -3.9533392420      -39.0613116018  TIP3      3185            0.0000000000
     23024      3332  TIP3      OH2           -26.4627576822       -0.3027110396      -33.4735292732  TIP3      3186            0.0000000000
     23025      3332  TIP3      H1            -25.9559602449       -0.3402611692      -34.2914983940  TIP3      3186            0.0000000000
     23026      3332  TIP3      H2            -26.2240128509       -1.1169342886      -33.0145057938  TIP3      3186            0.0000000000
     23027      3333  TIP3      OH2           -19.3223617412        1.2876132805      -39.5738085648  TIP3      3187            0.0000000000
     23028      3333  TIP3      H1            -19.5615462935        2.2345140985      -39.4732967675  TIP3      3187            0.0000000000
     23029      3333  TIP3      H2            -20.1199923385        0.8518854691      -39.2049830462  TIP3      3187            0.0000000000
     23030      3334  TIP3      OH2           -29.6974586732       -1.9895846439      -27.5884283073  TIP3      3188            0.0000000000
     23031      3334  TIP3      H1            -29.1249305353       -2.6463857632      -27.1479836291  TIP3      3188            0.0000000000
     23032      3334  TIP3      H2            -30.4087657759       -2.5549049957      -27.9364350174  TIP3      3188            0.0000000000
     23033      3335  TIP3      OH2           -22.7609806551       -2.1762470500      -25.8788595099  TIP3      3189            0.0000000000
     23034      3335  TIP3      H1            -23.1193576890       -2.6334692896      -26.6615381615  TIP3      3189            0.0000000000
     23035      3335  TIP3      H2            -21.9847901501       -2.7415244455      -25.6884434495  TIP3      3189            0.0000000000
     23036      3336  TIP3      OH2           -17.4217515099        2.7356013068      -27.3756347481  TIP3      3190            0.0000000000
     23037      3336  TIP3      H1            -18.2501030827        2.6937730607      -27.8704271620  TIP3      3190            0.0000000000
     23038      3336  TIP3      H2            -17.7395044685        3.1590461741      -26.5537989434  TIP3      3190            0.0000000000
     23039      3337  TIP3      OH2           -12.1933366104       -4.9170316152      -39.2974554652  TIP3      3191            0.0000000000
     23040      3337  TIP3      H1            -12.8760296605       -5.0182605528      -39.9894834973  TIP3      3191            0.0000000000
     23041      3337  TIP3      H2            -12.0653028693       -3.9463716121      -39.3725896812  TIP3      3191            0.0000000000
     23042      3338  TIP3      OH2           -11.9103520019        0.6236978054      -26.7059558237  TIP3      3192            0.0000000000
     23043      3338  TIP3      H1            -12.7872317442        0.8823068929      -27.0737907022  TIP3      3192            0.0000000000
     23044      3338  TIP3      H2            -11.3516739000        0.6641677118      -27.5169398360  TIP3      3192            0.0000000000
     23045      3339  TIP3      OH2           -14.0873434645        3.8852964292      -39.0655695933  TIP3      3193            0.0000000000
     23046      3339  TIP3      H1            -14.0458226015        3.0709099885      -38.5503767698  TIP3      3193            0.0000000000
     23047      3339  TIP3      H2            -13.6641227502        3.6621672936      -39.9175853577  TIP3      3193            0.0000000000
     23048      3340  TIP3      OH2           -16.7003870704       -1.4803803110      -31.5859829398  TIP3      3194            0.0000000000
     23049      3340  TIP3      H1            -17.5393291863       -1.6916020441      -32.0435392815  TIP3      3194            0.0000000000
     23050      3340  TIP3      H2            -16.0902653658       -2.0845365364      -32.0479046903  TIP3      3194            0.0000000000
     23051      3341  TIP3      OH2           -24.4382270858        3.1059382475      -35.3671986172  TIP3      3195            0.0000000000
     23052      3341  TIP3      H1            -24.2775874041        3.9279917755      -35.8772195865  TIP3      3195            0.0000000000
     23053      3341  TIP3      H2            -25.3101305597        2.8486877666      -35.6927427434  TIP3      3195            0.0000000000
     23054      3342  TIP3      OH2           -28.3231340195       -2.2029646518      -40.7838562941  TIP3      3196            0.0000000000
     23055      3342  TIP3      H1            -27.5239667067       -1.8148080535      -40.3981443757  TIP3      3196            0.0000000000
     23056      3342  TIP3      H2            -28.9316015379       -1.4503058298      -40.8572497616  TIP3      3196            0.0000000000
     23057      3343  TIP3      OH2           -22.7245984659        1.0869601735      -36.0034614672  TIP3      3197            0.0000000000
     23058      3343  TIP3      H1            -23.2637903442        1.8901171852      -35.8472518175  TIP3      3197            0.0000000000
     23059      3343  TIP3      H2            -23.3787462213        0.3624365631      -35.9140309562  TIP3      3197            0.0000000000
     23060      3344  TIP3      OH2           -22.1688280530        5.0485188999      -29.2614330676  TIP3      3198            0.0000000000
     23061      3344  TIP3      H1            -21.6041575168        5.7309573811      -29.6966616531  TIP3      3198            0.0000000000
     23062      3344  TIP3      H2            -21.5069265304        4.5122606918      -28.7886622646  TIP3      3198            0.0000000000
     23063      3345  TIP3      OH2           -24.2134742206        5.4689964918      -36.7882289953  TIP3      3199            0.0000000000
     23064      3345  TIP3      H1            -25.1485936641        5.6867659952      -36.6003633980  TIP3      3199            0.0000000000
     23065      3345  TIP3      H2            -23.7779673155        6.1943912419      -36.2898639816  TIP3      3199            0.0000000000
     23066      3346  TIP3      OH2           -18.8234894091        0.7256314282      -30.1102410038  TIP3      3200            0.0000000000
     23067      3346  TIP3      H1            -18.9321565093        0.4220872957      -29.1920588422  TIP3      3200            0.0000000000
     23068      3346  TIP3      H2            -18.3695989279       -0.0501813572      -30.5008125870  TIP3      3200            0.0000000000
     23069      3347  TIP3      OH2           -16.3414160192        2.1381559480      -40.5972729780  TIP3      3201            0.0000000000
     23070      3347  TIP3      H1            -16.0217168640        1.5786745282      -39.8552204675  TIP3      3201            0.0000000000
     23071      3347  TIP3      H2            -17.2450094964        1.7933167143      -40.6956070593  TIP3      3201            0.0000000000
     23072      3348  TIP3      OH2           -15.7529002709        5.1632968600      -27.4933054919  TIP3      3202            0.0000000000
     23073      3348  TIP3      H1            -16.5741677075        4.6407332179      -27.6157669126  TIP3      3202            0.0000000000
     23074      3348  TIP3      H2            -15.7628821517        5.8150767261      -28.2349861539  TIP3      3202            0.0000000000
     23075      3349  TIP3      OH2           -11.9387447870        6.2194114656      -40.6342538500  TIP3      3203            0.0000000000
     23076      3349  TIP3      H1            -11.6670651435        6.6705906719      -41.4456958069  TIP3      3203            0.0000000000
     23077      3349  TIP3      H2            -12.4923742352        6.9129662871      -40.2125437356  TIP3      3203            0.0000000000
     23078      3350  TIP3      OH2           -28.0087722923       -7.3720033829      -28.6820178843  TIP3      3204            0.0000000000
     23079      3350  TIP3      H1            -28.7880940659       -6.9879994127      -28.2578012782  TIP3      3204            0.0000000000
     23080      3350  TIP3      H2            -28.2757257328       -8.3149383591      -28.7054058723  TIP3      3204            0.0000000000
     23081      3351  TIP3      OH2           -15.4910393319        0.4475416682      -38.7170196120  TIP3      3205            0.0000000000
     23082      3351  TIP3      H1            -15.6779764879       -0.2562560814      -38.0523987485  TIP3      3205            0.0000000000
     23083      3351  TIP3      H2            -14.5127092811        0.4881779640      -38.6519600734  TIP3      3205            0.0000000000
     23084      3352  TIP3      OH2           -27.8741328111        4.5199416579      -29.5648269151  TIP3      3206            0.0000000000
     23085      3352  TIP3      H1            -27.6401861141        3.6358463189      -29.8865919538  TIP3      3206            0.0000000000
     23086      3352  TIP3      H2            -27.7577972947        4.3955150996      -28.6131070570  TIP3      3206            0.0000000000
     23087      3353  TIP3      OH2           -23.2797527110        2.5145535087      -40.1813857393  TIP3      3207            0.0000000000
     23088      3353  TIP3      H1            -22.6321090721        2.0311877990      -39.6373020494  TIP3      3207            0.0000000000
     23089      3353  TIP3      H2            -23.1689493497        3.4269261356      -39.8311579155  TIP3      3207            0.0000000000
     23090      3354  TIP3      OH2           -26.7338432329       -0.2125248020      -39.0896966110  TIP3      3208            0.0000000000
     23091      3354  TIP3      H1            -27.6309550527        0.1745277188      -38.9529592793  TIP3      3208            0.0000000000
     23092      3354  TIP3      H2            -26.2062794553        0.6095828139      -39.0397980191  TIP3      3208            0.0000000000
     23093      3355  TIP3      OH2           -18.6110034424       -7.7748972086      -29.5362791130  TIP3      3209            0.0000000000
     23094      3355  TIP3      H1            -17.9877858834       -7.4076645358      -28.8857639572  TIP3      3209            0.0000000000
     23095      3355  TIP3      H2            -19.1132154051       -8.4008692829      -28.9756191960  TIP3      3209            0.0000000000
     23096      3356  TIP3      OH2           -18.5000068046       -8.1153178116      -38.3897016619  TIP3      3210            0.0000000000
     23097      3356  TIP3      H1            -17.9920345428       -7.8948578238      -39.1954670675  TIP3      3210            0.0000000000
     23098      3356  TIP3      H2            -17.9659725145       -7.6890622949      -37.6833481426  TIP3      3210            0.0000000000
     23099      3357  TIP3      OH2           -20.5091655492        3.7016531196      -39.1204123089  TIP3      3211            0.0000000000
     23100      3357  TIP3      H1            -21.2108676984        4.3619636577      -38.9338286044  TIP3      3211            0.0000000000
     23101      3357  TIP3      H2            -19.8381429232        4.2473617958      -39.5781375104  TIP3      3211            0.0000000000
     23102      3358  TIP3      OH2           -21.0627036553       -6.1504497014      -36.8629134066  TIP3      3212            0.0000000000
     23103      3358  TIP3      H1            -20.4853882705       -5.3948864010      -36.6337977274  TIP3      3212            0.0000000000
     23104      3358  TIP3      H2            -21.1986880169       -6.6081468242      -35.9948440118  TIP3      3212            0.0000000000
     23105      3359  TIP3      OH2           -20.2522355287       -5.0693738071      -27.9301203519  TIP3      3213            0.0000000000
     23106      3359  TIP3      H1            -20.4201460170       -4.6530028216      -27.0677195832  TIP3      3213            0.0000000000
     23107      3359  TIP3      H2            -20.0162786658       -5.9810840557      -27.7113602970  TIP3      3213            0.0000000000
     23108      3360  TIP3      OH2           -20.0657013137       -9.4184180914      -36.3644488363  TIP3      3214            0.0000000000
     23109      3360  TIP3      H1            -20.6627816945       -8.6958086925      -36.0858685728  TIP3      3214            0.0000000000
     23110      3360  TIP3      H2            -19.3746093525       -8.9171580294      -36.8563617360  TIP3      3214            0.0000000000
     23111      3361  TIP3      OH2           -22.8208063541        5.1345320329      -39.1521623797  TIP3      3215            0.0000000000
     23112      3361  TIP3      H1            -22.8425082030        5.9243165606      -39.7362565442  TIP3      3215            0.0000000000
     23113      3361  TIP3      H2            -23.3815219404        5.4576968946      -38.4133870654  TIP3      3215            0.0000000000
     23114      3362  TIP3      OH2           -24.8977272667       -8.2406502765      -39.6451682520  TIP3      3216            0.0000000000
     23115      3362  TIP3      H1            -24.7891921470       -7.4228927283      -39.1245666731  TIP3      3216            0.0000000000
     23116      3362  TIP3      H2            -24.1181108339       -8.7223610243      -39.3027280326  TIP3      3216            0.0000000000
     23117      3363  TIP3      OH2           -14.5378797093       -7.4677450894      -27.0364457740  TIP3      3217            0.0000000000
     23118      3363  TIP3      H1            -15.4294596667       -7.2743307717      -27.4103806579  TIP3      3217            0.0000000000
     23119      3363  TIP3      H2            -13.9766472591       -7.3585118102      -27.8250378914  TIP3      3217            0.0000000000
     23120      3364  TIP3      OH2           -15.4270027686       -3.3534626276      -33.3477181033  TIP3      3218            0.0000000000
     23121      3364  TIP3      H1            -16.2699073120       -3.8493590413      -33.2981906958  TIP3      3218            0.0000000000
     23122      3364  TIP3      H2            -14.8150563162       -3.9528497004      -32.8561446551  TIP3      3218            0.0000000000
     23123      3365  TIP3      OH2           -26.1700732770        2.3848895741      -40.6311959010  TIP3      3219            0.0000000000
     23124      3365  TIP3      H1            -25.2731872265        2.6523519059      -40.3707528350  TIP3      3219            0.0000000000
     23125      3365  TIP3      H2            -25.9520807190        1.6561844915      -41.2486529220  TIP3      3219            0.0000000000
     23126      3366  TIP3      OH2           -27.5298118991       -5.2014129009      -41.6517652780  TIP3      3220            0.0000000000
     23127      3366  TIP3      H1            -27.6642424495       -4.2552401396      -41.4549172253  TIP3      3220            0.0000000000
     23128      3366  TIP3      H2            -28.0016126997       -5.2919950128      -42.4906758467  TIP3      3220            0.0000000000
     23129      3367  TIP3      OH2           -14.5432267191        5.5483192540      -31.7831103191  TIP3      3221            0.0000000000
     23130      3367  TIP3      H1            -14.7775353661        6.2140819983      -32.4552807693  TIP3      3221            0.0000000000
     23131      3367  TIP3      H2            -13.5700788145        5.5755966310      -31.9119121488  TIP3      3221            0.0000000000
     23132      3368  TIP3      OH2           -27.2125605388      -10.1708888960      -32.8114634103  TIP3      3222            0.0000000000
     23133      3368  TIP3      H1            -27.3662042020      -10.3988206840      -33.7465266458  TIP3      3222            0.0000000000
     23134      3368  TIP3      H2            -27.6095996499      -10.9432472135      -32.3644842594  TIP3      3222            0.0000000000
     23135      3369  TIP3      OH2           -28.1730722251        3.2017497632      -37.4282128986  TIP3      3223            0.0000000000
     23136      3369  TIP3      H1            -28.1665629537        3.2827407100      -36.4460636350  TIP3      3223            0.0000000000
     23137      3369  TIP3      H2            -27.9019971084        4.0673546442      -37.7752351572  TIP3      3223            0.0000000000
     23138      3370  TIP3      OH2           -28.5692025741        6.5878765956      -25.7836864500  TIP3      3224            0.0000000000
     23139      3370  TIP3      H1            -27.9343502019        6.5425429305      -25.0499204991  TIP3      3224            0.0000000000
     23140      3370  TIP3      H2            -28.8382982592        5.6574383387      -25.8294198042  TIP3      3224            0.0000000000
     23141      3371  TIP3      OH2           -24.6899933913        5.4463735411      -23.8707927546  TIP3      3225            0.0000000000
     23142      3371  TIP3      H1            -23.8218072528        5.0312821463      -23.7164920020  TIP3      3225            0.0000000000
     23143      3371  TIP3      H2            -24.9212666540        5.0951442199      -24.7555620362  TIP3      3225            0.0000000000
     23144      3372  TIP3      OH2           -19.4845888714        5.0459384941      -41.2421225824  TIP3      3226            0.0000000000
     23145      3372  TIP3      H1            -20.0803661502        4.4043414482      -41.6695057021  TIP3      3226            0.0000000000
     23146      3372  TIP3      H2            -18.9417706085        5.3282035039      -41.9996811863  TIP3      3226            0.0000000000
     23147      3373  TIP3      OH2           -18.1235205328        3.8930929211      -24.9813063380  TIP3      3227            0.0000000000
     23148      3373  TIP3      H1            -18.2392031045        3.1033633028      -24.4139828269  TIP3      3227            0.0000000000
     23149      3373  TIP3      H2            -17.2199718369        4.1761041333      -24.7149647149  TIP3      3227            0.0000000000
     23150      3374  TIP3      OH2           -15.4139186951        4.3714815407      -42.1761283392  TIP3      3228            0.0000000000
     23151      3374  TIP3      H1            -15.8207384677        3.7039068188      -41.5864687850  TIP3      3228            0.0000000000
     23152      3374  TIP3      H2            -14.4709866251        4.1763994824      -41.9928921351  TIP3      3228            0.0000000000
     23153      3375  TIP3      OH2           -28.3096566202        0.7442229547      -24.8820512266  TIP3      3229            0.0000000000
     23154      3375  TIP3      H1            -28.5729276389       -0.1097293613      -24.4652784206  TIP3      3229            0.0000000000
     23155      3375  TIP3      H2            -29.1908363483        0.9140935418      -25.2754908609  TIP3      3229            0.0000000000
     23156      3376  TIP3      OH2           -24.8803518127        0.1796289356      -41.7737545713  TIP3      3230            0.0000000000
     23157      3376  TIP3      H1            -24.2285720025        0.1649749070      -41.0496839460  TIP3      3230            0.0000000000
     23158      3376  TIP3      H2            -24.2687109383        0.2127243875      -42.5300989668  TIP3      3230            0.0000000000
     23159      3377  TIP3      OH2           -22.3935440610        0.5190224330      -25.3112769696  TIP3      3231            0.0000000000
     23160      3377  TIP3      H1            -22.8667403212        0.9949647500      -26.0290165760  TIP3      3231            0.0000000000
     23161      3377  TIP3      H2            -22.7084259644       -0.4106847607      -25.4714671345  TIP3      3231            0.0000000000
     23162      3378  TIP3      OH2           -16.7481916023       -0.0727131118      -27.3885755311  TIP3      3232            0.0000000000
     23163      3378  TIP3      H1            -15.8180461289        0.2356359358      -27.3501516916  TIP3      3232            0.0000000000
     23164      3378  TIP3      H2            -17.1509094327        0.8133098892      -27.3053229442  TIP3      3232            0.0000000000
     23165      3379  TIP3      OH2           -27.4989596116       -2.4041618164      -25.6309021300  TIP3      3233            0.0000000000
     23166      3379  TIP3      H1            -26.8675838560       -3.0890408745      -25.3660129125  TIP3      3233            0.0000000000
     23167      3379  TIP3      H2            -28.2388010463       -2.5830928475      -25.0292397714  TIP3      3233            0.0000000000
     23168      3380  TIP3      OH2           -23.3019062981       -1.4346133761      -39.8451319435  TIP3      3234            0.0000000000
     23169      3380  TIP3      H1            -24.1147956352       -1.8695198990      -39.5433572342  TIP3      3234            0.0000000000
     23170      3380  TIP3      H2            -22.9432437177       -2.0833731329      -40.4835872223  TIP3      3234            0.0000000000
     23171      3381  TIP3      OH2           -24.3203378519       -3.6151009365      -27.6599538304  TIP3      3235            0.0000000000
     23172      3381  TIP3      H1            -25.0444706520       -2.9541175971      -27.7047630852  TIP3      3235            0.0000000000
     23173      3381  TIP3      H2            -23.7667658573       -3.3694538779      -28.4305537395  TIP3      3235            0.0000000000
     23174      3382  TIP3      OH2           -22.3605786725       -3.2325090290      -41.7746858662  TIP3      3236            0.0000000000
     23175      3382  TIP3      H1            -22.3440883736       -3.0449350220      -42.7348897949  TIP3      3236            0.0000000000
     23176      3382  TIP3      H2            -21.4262473200       -3.0818374857      -41.5071239410  TIP3      3236            0.0000000000
     23177      3383  TIP3      OH2           -18.8126338135       -1.0569575404      -24.1706740774  TIP3      3237            0.0000000000
     23178      3383  TIP3      H1            -18.5410426451       -1.0186902467      -25.1008194835  TIP3      3237            0.0000000000
     23179      3383  TIP3      H2            -17.9469512961       -1.0041637181      -23.7377673747  TIP3      3237            0.0000000000
     23180      3384  TIP3      OH2           -12.8211416647       -0.2212985774       42.0302923585  TIP3      3238            0.0000000000
     23181      3384  TIP3      H1            -13.1221724698       -0.1521504707       41.1127816964  TIP3      3238            0.0000000000
     23182      3384  TIP3      H2            -12.4227488208        0.6549115382       42.1765762061  TIP3      3238            0.0000000000
     23183      3385  TIP3      OH2           -23.2440410636       -6.3943282694      -27.0523820180  TIP3      3239            0.0000000000
     23184      3385  TIP3      H1            -23.6676323574       -6.9891721054      -27.6995923403  TIP3      3239            0.0000000000
     23185      3385  TIP3      H2            -23.4725297772       -5.5152547053      -27.4227061885  TIP3      3239            0.0000000000
     23186      3386  TIP3      OH2           -23.6673816467       -8.1870172825      -29.1252665474  TIP3      3240            0.0000000000
     23187      3386  TIP3      H1            -23.0614095500       -7.6144861927      -29.6644306517  TIP3      3240            0.0000000000
     23188      3386  TIP3      H2            -24.5286773169       -7.9946630789      -29.5571527885  TIP3      3240            0.0000000000
     23189      3387  TIP3      OH2           -22.2121921909       -2.3520408437      -28.9401044249  TIP3      3241            0.0000000000
     23190      3387  TIP3      H1            -21.3323713224       -1.9610761541      -28.8506108700  TIP3      3241            0.0000000000
     23191      3387  TIP3      H2            -22.6926604710       -1.6366388485      -29.4140158544  TIP3      3241            0.0000000000
     23192      3388  TIP3      OH2           -17.4767923244       -5.0971185740      -24.5298242566  TIP3      3242            0.0000000000
     23193      3388  TIP3      H1            -16.5680815713       -5.0804678180      -24.8994268424  TIP3      3242            0.0000000000
     23194      3388  TIP3      H2            -17.4690355120       -4.2545674580      -24.0603950196  TIP3      3242            0.0000000000
     23195      3389  TIP3      OH2           -16.2402297530       -1.9548520010      -25.4034045904  TIP3      3243            0.0000000000
     23196      3389  TIP3      H1            -16.4774446361       -1.3654914253      -26.1510926830  TIP3      3243            0.0000000000
     23197      3389  TIP3      H2            -15.2731412083       -1.9909115004      -25.5282633895  TIP3      3243            0.0000000000
     23198      3390  TIP3      OH2           -25.5197034342       -4.7976491766      -24.7734520390  TIP3      3244            0.0000000000
     23199      3390  TIP3      H1            -26.3588467657       -5.1792979440      -24.4415980095  TIP3      3244            0.0000000000
     23200      3390  TIP3      H2            -25.4543879892       -5.1799032176      -25.6665352453  TIP3      3244            0.0000000000
     23201      3391  TIP3      OH2           -22.3231272946      -10.5048994120      -29.3950307463  TIP3      3245            0.0000000000
     23202      3391  TIP3      H1            -22.8006336823       -9.6846711590      -29.1229361057  TIP3      3245            0.0000000000
     23203      3391  TIP3      H2            -23.0675676761      -11.0861316198      -29.6152102582  TIP3      3245            0.0000000000
     23204      3392  TIP3      OH2           -21.4066210535       -6.4566869230      -25.0618749962  TIP3      3246            0.0000000000
     23205      3392  TIP3      H1            -22.0337150669       -6.4887507218      -24.3089686451  TIP3      3246            0.0000000000
     23206      3392  TIP3      H2            -22.0161249612       -6.3757475185      -25.8346532238  TIP3      3246            0.0000000000
     23207      3393  TIP3      OH2           -18.8958508454       -7.3260936524      -25.7484983132  TIP3      3247            0.0000000000
     23208      3393  TIP3      H1            -19.1447719017       -6.6125965447      -25.1294575399  TIP3      3247            0.0000000000
     23209      3393  TIP3      H2            -18.2217723678       -7.7750301987      -25.1811125530  TIP3      3247            0.0000000000
     23210      3394  TIP3      OH2           -17.1967342588       -8.6161932203      -24.1816489739  TIP3      3248            0.0000000000
     23211      3394  TIP3      H1            -17.2261559939       -9.6026358847      -24.2555423136  TIP3      3248            0.0000000000
     23212      3394  TIP3      H2            -17.0297736555       -8.5607898070      -23.2290596168  TIP3      3248            0.0000000000
     23213      3395  TIP3      OH2           -27.1346258953       -7.2257158133      -24.3257609840  TIP3      3249            0.0000000000
     23214      3395  TIP3      H1            -26.7998581307       -7.9353894579      -24.9022338877  TIP3      3249            0.0000000000
     23215      3395  TIP3      H2            -27.2572582082       -7.6139339577      -23.4461923976  TIP3      3249            0.0000000000
     23216      3396  TIP3      OH2           -22.3255868505      -10.6776029163      -26.5331384327  TIP3      3250            0.0000000000
     23217      3396  TIP3      H1            -21.8840903522      -11.4843605027      -26.2100293699  TIP3      3250            0.0000000000
     23218      3396  TIP3      H2            -22.6227158872      -11.0012411051      -27.4005829762  TIP3      3250            0.0000000000
     23219      3397  TIP3      OH2           -21.8204184552       -9.4684348189      -24.0874057805  TIP3      3251            0.0000000000
     23220      3397  TIP3      H1            -22.3419731645      -10.2675315169      -24.3061490956  TIP3      3251            0.0000000000
     23221      3397  TIP3      H2            -22.5385831162       -8.8209628868      -23.9920296482  TIP3      3251            0.0000000000
     23222      3398  TIP3      OH2           -22.9103956855        7.3507509157      -40.8288050584  TIP3      3252            0.0000000000
     23223      3398  TIP3      H1            -21.9609087885        7.4986217270      -40.6522896816  TIP3      3252            0.0000000000
     23224      3398  TIP3      H2            -23.1554042710        8.2946208060      -40.8462904635  TIP3      3252            0.0000000000
     23225      3399  TIP3      OH2           -29.1270762798        2.4126235030      -41.4199577790  TIP3      3253            0.0000000000
     23226      3399  TIP3      H1            -28.5489121055        3.1895703645      -41.5442656962  TIP3      3253            0.0000000000
     23227      3399  TIP3      H2            -28.5641817441        1.6783358266      -41.7085589596  TIP3      3253            0.0000000000
     23228      3400  TIP3      OH2            30.1398333967        7.1275414297      -36.8425657384  TIP3      3254            0.0000000000
     23229      3400  TIP3      H1             29.3406100589        6.5837620419      -36.9570390066  TIP3      3254            0.0000000000
     23230      3400  TIP3      H2             30.4840463877        6.8269613343      -35.9730534275  TIP3      3254            0.0000000000
     23231      3401  TIP3      OH2           -29.2108431045        6.0372114228      -34.3718685156  TIP3      3255            0.0000000000
     23232      3401  TIP3      H1            -29.1502949515        5.0566097361      -34.5340150917  TIP3      3255            0.0000000000
     23233      3401  TIP3      H2            -28.7250439879        6.0717468735      -33.5365873801  TIP3      3255            0.0000000000
     23234      3402  TIP3      OH2           -11.8548435710        6.2645779033      -31.8404641389  TIP3      3256            0.0000000000
     23235      3402  TIP3      H1            -12.1395771974        6.1201840934      -30.9146965970  TIP3      3256            0.0000000000
     23236      3402  TIP3      H2            -11.4457322079        7.1312941466      -31.7257290774  TIP3      3256            0.0000000000
     23237      3403  TIP3      OH2           -12.5958922568        5.7305747791      -29.3109138477  TIP3      3257            0.0000000000
     23238      3403  TIP3      H1            -12.6627161813        4.7791233684      -29.0988808730  TIP3      3257            0.0000000000
     23239      3403  TIP3      H2            -11.9193432255        6.0367041337      -28.6701483390  TIP3      3257            0.0000000000
     23240      3404  TIP3      OH2           -12.8028811328       -0.0306331999      -38.7389790546  TIP3      3258            0.0000000000
     23241      3404  TIP3      H1            -11.8703349995        0.2642273105      -38.6293098345  TIP3      3258            0.0000000000
     23242      3404  TIP3      H2            -12.8810516181       -0.6772690538      -38.0011384709  TIP3      3258            0.0000000000
     23243      3405  TIP3      OH2           -12.4027931275       -2.0652257013      -36.9076972636  TIP3      3259            0.0000000000
     23244      3405  TIP3      H1            -13.0766533681       -2.6340088123      -36.4663045367  TIP3      3259            0.0000000000
     23245      3405  TIP3      H2            -11.8558791513       -1.7823002483      -36.1507288680  TIP3      3259            0.0000000000
     23246      3406  TIP3      OH2           -12.6828612800        0.3922136286      -32.0399635479  TIP3      3260            0.0000000000
     23247      3406  TIP3      H1            -11.8727025662       -0.1592457838      -32.0522887248  TIP3      3260            0.0000000000
     23248      3406  TIP3      H2            -12.3136743602        1.2922296696      -32.1380841148  TIP3      3260            0.0000000000
     23249      3407  TIP3      OH2           -14.0401567804        3.3584908355      -29.3454192795  TIP3      3261            0.0000000000
     23250      3407  TIP3      H1            -14.6023594908        4.0991855663      -29.0720076524  TIP3      3261            0.0000000000
     23251      3407  TIP3      H2            -14.4355542930        3.0980930768      -30.2026770707  TIP3      3261            0.0000000000
     23252      3408  TIP3      OH2           -12.2037797346       -2.2973915863      -40.2632797896  TIP3      3262            0.0000000000
     23253      3408  TIP3      H1            -12.8704861540       -2.1774859337      -40.9588414940  TIP3      3262            0.0000000000
     23254      3408  TIP3      H2            -12.2895357887       -1.4634107315      -39.7486752541  TIP3      3262            0.0000000000
     23255      3409  TIP3      OH2           -14.3413522104       -5.1286503150      -41.4068492502  TIP3      3263            0.0000000000
     23256      3409  TIP3      H1            -13.6928261313       -4.6336093368      -41.9341439143  TIP3      3263            0.0000000000
     23257      3409  TIP3      H2            -14.2342435400       -6.0308419850      -41.7696756683  TIP3      3263            0.0000000000
     23258      3410  TIP3      OH2           -14.3264617660       -3.5433216481      -35.7588087430  TIP3      3264            0.0000000000
     23259      3410  TIP3      H1            -14.6664965576       -4.4078410180      -36.0437149577  TIP3      3264            0.0000000000
     23260      3410  TIP3      H2            -14.6806571147       -3.4842692601      -34.8358839580  TIP3      3264            0.0000000000
     23261      3411  TIP3      OH2           -29.4351580694       -1.1923645535      -31.9743637862  TIP3      3265            0.0000000000
     23262      3411  TIP3      H1            -29.5047389066       -1.4958318617      -32.9020178396  TIP3      3265            0.0000000000
     23263      3411  TIP3      H2            -28.4692695042       -1.3282408572      -31.8693823444  TIP3      3265            0.0000000000
     23264      3412  TIP3      OH2           -13.3515967473       -1.8190256183      -26.3942070006  TIP3      3266            0.0000000000
     23265      3412  TIP3      H1            -12.8073228852       -2.6291145332      -26.5142421701  TIP3      3266            0.0000000000
     23266      3412  TIP3      H2            -12.7267639066       -1.1099258234      -26.6705249429  TIP3      3266            0.0000000000
     23267      3413  TIP3      OH2           -12.0647539676       -4.1866242623      -26.3229172364  TIP3      3267            0.0000000000
     23268      3413  TIP3      H1            -12.8599774203       -4.5902132040      -25.9538231995  TIP3      3267            0.0000000000
     23269      3413  TIP3      H2            -11.4488507958       -4.9295947488      -26.1353137004  TIP3      3267            0.0000000000
     23270      3414  TIP3      OH2           -14.4249050106       -7.4628855276      -42.7246899918  TIP3      3268            0.0000000000
     23271      3414  TIP3      H1            -13.9577139638       -8.0279803853      -42.0720240647  TIP3      3268            0.0000000000
     23272      3414  TIP3      H2            -15.3435104699       -7.4527515756      -42.3964739655  TIP3      3268            0.0000000000
     23273      3415  TIP3      OH2           -15.1304697290       -5.4874121029      -37.5171400069  TIP3      3269            0.0000000000
     23274      3415  TIP3      H1            -14.7143551656       -6.3085576180      -37.1700208661  TIP3      3269            0.0000000000
     23275      3415  TIP3      H2            -14.5655412518       -5.3605948336      -38.2975575016  TIP3      3269            0.0000000000
     23276      3416  TIP3      OH2           -13.8510221543       -5.0400827767      -31.9477443952  TIP3      3270            0.0000000000
     23277      3416  TIP3      H1            -12.8633798912       -4.9840773375      -31.9550022617  TIP3      3270            0.0000000000
     23278      3416  TIP3      H2            -13.9756592268       -4.9761229523      -30.9793917118  TIP3      3270            0.0000000000
     23279      3417  TIP3      OH2           -13.7068527749       -4.5685931659      -29.1691312593  TIP3      3271            0.0000000000
     23280      3417  TIP3      H1            -14.5699523238       -4.3556762355      -28.7395779757  TIP3      3271            0.0000000000
     23281      3417  TIP3      H2            -13.3378949008       -3.6708471241      -29.3385016159  TIP3      3271            0.0000000000
     23282      3418  TIP3      OH2           -29.0789093607       -5.5915771943      -25.9916362029  TIP3      3272            0.0000000000
     23283      3418  TIP3      H1            -28.3439302232       -5.8714923005      -25.4148847813  TIP3      3272            0.0000000000
     23284      3418  TIP3      H2            -29.8199765978       -5.7043968021      -25.3665437459  TIP3      3272            0.0000000000
     23285      3419  TIP3      OH2           -11.6642888660      -10.9409928915      -24.1786201543  TIP3      3273            0.0000000000
     23286      3419  TIP3      H1            -10.7309338949      -10.7062562369      -24.1186373955  TIP3      3273            0.0000000000
     23287      3419  TIP3      H2            -12.1012143559      -10.1228882702      -24.4944218079  TIP3      3273            0.0000000000
     23288      3420  TIP3      OH2           -13.8715646085       -7.9166989081      -37.2398408168  TIP3      3274            0.0000000000
     23289      3420  TIP3      H1            -13.6709447053       -8.5076663772      -36.4794268958  TIP3      3274            0.0000000000
     23290      3420  TIP3      H2            -14.3704437724       -8.5344429012      -37.8038297396  TIP3      3274            0.0000000000
     23291      3421  TIP3      OH2           -28.6461391314       -7.8689880547      -32.4659656078  TIP3      3275            0.0000000000
     23292      3421  TIP3      H1            -28.1970834104       -8.7384031400      -32.3678471292  TIP3      3275            0.0000000000
     23293      3421  TIP3      H2            -27.8949014444       -7.2503660490      -32.4065616056  TIP3      3275            0.0000000000
     23294      3422  TIP3      OH2           -29.9914515272       -4.7585809661      -31.8160481556  TIP3      3276            0.0000000000
     23295      3422  TIP3      H1            -29.5153212366       -5.0368816931      -32.6229170845  TIP3      3276            0.0000000000
     23296      3422  TIP3      H2            -29.2501072057       -4.5775842524      -31.2166332638  TIP3      3276            0.0000000000
     23297      3423  TIP3      OH2           -12.9871454486       -8.9159119052      -25.4189806154  TIP3      3277            0.0000000000
     23298      3423  TIP3      H1            -13.6131838916       -8.3651685379      -25.9562809072  TIP3      3277            0.0000000000
     23299      3423  TIP3      H2            -12.5547752392       -9.3819253844      -26.1770258701  TIP3      3277            0.0000000000
     23300      3424  TIP3      OH2           -12.6673540664       -8.3952537008      -40.8560087918  TIP3      3278            0.0000000000
     23301      3424  TIP3      H1            -12.0768888738       -8.9886973002      -41.3378308900  TIP3      3278            0.0000000000
     23302      3424  TIP3      H2            -12.2279015888       -7.5335867167      -40.9888384036  TIP3      3278            0.0000000000
     23303      3425  TIP3      OH2            29.6608306898       -8.9845866145      -38.0144375040  TIP3      3279            0.0000000000
     23304      3425  TIP3      H1             29.1802706896       -8.3979552862      -37.4068857131  TIP3      3279            0.0000000000
     23305      3425  TIP3      H2             30.0425904313       -8.3530311994      -38.6594969584  TIP3      3279            0.0000000000
     23306      3426  TIP3      OH2           -14.6704087868        6.2942446770      -35.2926304783  TIP3      3280            0.0000000000
     23307      3426  TIP3      H1            -14.0154254346        6.4258647506      -36.0019176298  TIP3      3280            0.0000000000
     23308      3426  TIP3      H2            -15.2046788784        7.1111552255      -35.3073041786  TIP3      3280            0.0000000000
     23309      3427  TIP3      OH2           -29.6935531799       -9.6574684519      -29.1801344984  TIP3      3281            0.0000000000
     23310      3427  TIP3      H1            -30.3002401789      -10.4137959562      -29.1101321858  TIP3      3281            0.0000000000
     23311      3427  TIP3      H2            -30.3215781718       -8.9706847099      -29.4836247410  TIP3      3281            0.0000000000
     23312      3428  TIP3      OH2           -28.2501938057        3.5992481511      -25.9465785555  TIP3      3282            0.0000000000
     23313      3428  TIP3      H1            -28.7807348189        2.8905414551      -26.3553701892  TIP3      3282            0.0000000000
     23314      3428  TIP3      H2            -28.3138969768        3.3746132123      -24.9919041149  TIP3      3282            0.0000000000
     23315      3429  TIP3      OH2           -24.7370061513        5.0767822659      -28.4335436504  TIP3      3283            0.0000000000
     23316      3429  TIP3      H1            -24.6699668048        6.0020110403      -28.7236332252  TIP3      3283            0.0000000000
     23317      3429  TIP3      H2            -23.8358264704        4.7412318427      -28.6307849780  TIP3      3283            0.0000000000
     23318      3430  TIP3      OH2           -20.7076002026        6.2627164215      -26.2406865291  TIP3      3284            0.0000000000
     23319      3430  TIP3      H1            -20.6716437705        5.9698178125      -25.3099912766  TIP3      3284            0.0000000000
     23320      3430  TIP3      H2            -19.8220176638        6.6704130658      -26.3517583575  TIP3      3284            0.0000000000
     23321      3431  TIP3      OH2           -18.3410638556        7.5045109319      -26.7054105011  TIP3      3285            0.0000000000
     23322      3431  TIP3      H1            -17.5578029202        7.1019425286      -27.1101944219  TIP3      3285            0.0000000000
     23323      3431  TIP3      H2            -18.0220386237        7.8492921671      -25.8484873677  TIP3      3285            0.0000000000
     23324      3432  TIP3      OH2           -12.6995987584      -10.4120540404      -27.5946011748  TIP3      3286            0.0000000000
     23325      3432  TIP3      H1            -13.5574043535      -10.2652543544      -28.0146928551  TIP3      3286            0.0000000000
     23326      3432  TIP3      H2            -12.4939012526      -11.3326054697      -27.8939896437  TIP3      3286            0.0000000000
     23327      3433  TIP3      OH2           -27.8323601169        7.0539497532      -28.3892252864  TIP3      3287            0.0000000000
     23328      3433  TIP3      H1            -28.6820063711        6.8198235907      -28.8189141335  TIP3      3287            0.0000000000
     23329      3433  TIP3      H2            -28.0637683834        7.0130234345      -27.4334255449  TIP3      3287            0.0000000000
     23330      3434  TIP3      OH2           -25.3697492965        7.3269579144      -29.8905627064  TIP3      3288            0.0000000000
     23331      3434  TIP3      H1            -25.9437087580        6.5522937045      -29.7207399844  TIP3      3288            0.0000000000
     23332      3434  TIP3      H2            -25.0236432048        7.1624603285      -30.7815966225  TIP3      3288            0.0000000000
     23333      3435  TIP3      OH2           -20.3084494391        6.8232493931      -30.7022495152  TIP3      3289            0.0000000000
     23334      3435  TIP3      H1            -20.7461257018        7.3707132905      -31.3770614728  TIP3      3289            0.0000000000
     23335      3435  TIP3      H2            -20.0967274720        7.5200540498      -30.0347100553  TIP3      3289            0.0000000000
     23336      3436  TIP3      OH2           -18.4209861001        5.4906267230      -29.3174089271  TIP3      3290            0.0000000000
     23337      3436  TIP3      H1            -19.2167576187        5.7222978070      -29.8490000148  TIP3      3290            0.0000000000
     23338      3436  TIP3      H2            -17.7658983294        6.0996037249      -29.6945033273  TIP3      3290            0.0000000000
     23339      3437  TIP3      OH2           -15.5133011619        6.8506911260      -29.5963164843  TIP3      3291            0.0000000000
     23340      3437  TIP3      H1            -15.4294672077        7.6310671082      -30.1728112265  TIP3      3291            0.0000000000
     23341      3437  TIP3      H2            -14.9874186509        6.2246207482      -30.1470333282  TIP3      3291            0.0000000000
     23342      3438  TIP3      OH2           -27.6324190400        6.2578216360      -31.7276628341  TIP3      3292            0.0000000000
     23343      3438  TIP3      H1            -27.7365048641        5.6350554597      -30.9638564675  TIP3      3292            0.0000000000
     23344      3438  TIP3      H2            -26.9546173832        5.8027413505      -32.2728567867  TIP3      3292            0.0000000000
     23345      3439  TIP3      OH2           -25.5928362009        5.6182908380      -33.3160578061  TIP3      3293            0.0000000000
     23346      3439  TIP3      H1            -25.8663405953        4.7209874231      -33.5939405416  TIP3      3293            0.0000000000
     23347      3439  TIP3      H2            -24.8124998564        5.3838168287      -32.7631814025  TIP3      3293            0.0000000000
     23348      3440  TIP3      OH2           -23.5380511616        5.0980079386      -31.6113009159  TIP3      3294            0.0000000000
     23349      3440  TIP3      H1            -23.2673983526        4.2139376645      -31.9462743448  TIP3      3294            0.0000000000
     23350      3440  TIP3      H2            -23.1813881798        5.0348831727      -30.6941880200  TIP3      3294            0.0000000000
     23351      3441  TIP3      OH2           -20.4204600832       -9.4949413160      -33.1917650181  TIP3      3295            0.0000000000
     23352      3441  TIP3      H1            -21.1612188170      -10.0901519492      -32.9387462955  TIP3      3295            0.0000000000
     23353      3441  TIP3      H2            -19.9352702140       -9.9994399114      -33.8603527097  TIP3      3295            0.0000000000
     23354      3442  TIP3      OH2           -14.4763927583      -10.7696171514      -33.2992547820  TIP3      3296            0.0000000000
     23355      3442  TIP3      H1            -13.8970233910      -10.1765321677      -33.8236963261  TIP3      3296            0.0000000000
     23356      3442  TIP3      H2            -15.3697809598      -10.5276602377      -33.6355491742  TIP3      3296            0.0000000000
     23357      3443  TIP3      OH2           -12.8175457777       -9.6905171950      -35.3445717007  TIP3      3297            0.0000000000
     23358      3443  TIP3      H1            -12.0627003026      -10.1333191517      -35.7878917990  TIP3      3297            0.0000000000
     23359      3443  TIP3      H2            -12.4060531050       -8.8283117224      -35.1030460384  TIP3      3297            0.0000000000
     23360      3444  TIP3      OH2           -27.7054203298      -10.5144034345      -35.7039462957  TIP3      3298            0.0000000000
     23361      3444  TIP3      H1            -28.5589598114      -10.7281217748      -36.1313164739  TIP3      3298            0.0000000000
     23362      3444  TIP3      H2            -27.2372016569      -11.3680205784      -35.8370909855  TIP3      3298            0.0000000000
     23363      3445  TIP3      OH2           -28.4925031315      -10.9104305183      -39.7552150662  TIP3      3299            0.0000000000
     23364      3445  TIP3      H1            -28.2049344264      -10.0927763122      -40.2010420880  TIP3      3299            0.0000000000
     23365      3445  TIP3      H2            -29.2547251618      -10.5999023526      -39.2267739312  TIP3      3299            0.0000000000
     23366      3446  TIP3      OH2           -23.0681020753      -10.7936655258      -35.5679842623  TIP3      3300            0.0000000000
     23367      3446  TIP3      H1            -22.2691222327      -10.6653013415      -36.0964326882  TIP3      3300            0.0000000000
     23368      3446  TIP3      H2            -22.7300348723      -10.8319695320      -34.6634214588  TIP3      3300            0.0000000000
     23369      3447  TIP3      OH2           -17.1415799706      -10.3256550887      -34.6522774527  TIP3      3301            0.0000000000
     23370      3447  TIP3      H1            -17.4788677967      -10.4475848641      -35.5473688229  TIP3      3301            0.0000000000
     23371      3447  TIP3      H2            -17.5735323496      -11.0846161101      -34.1892538686  TIP3      3301            0.0000000000
     23372      3448  TIP3      OH2           -16.0512142763      -10.5085744611      -39.0063648123  TIP3      3302            0.0000000000
     23373      3448  TIP3      H1            -16.6402875828      -10.7662667124      -39.7341619398  TIP3      3302            0.0000000000
     23374      3448  TIP3      H2            -16.3607074465      -11.1162050167      -38.3068700272  TIP3      3302            0.0000000000
     23375      3449  TIP3      OH2           -28.3864817125        5.5484536092      -39.1626716458  TIP3      3303            0.0000000000
     23376      3449  TIP3      H1            -29.3466526727        5.4831798036      -39.2256188000  TIP3      3303            0.0000000000
     23377      3449  TIP3      H2            -28.2808023342        6.5097628881      -39.1203179811  TIP3      3303            0.0000000000
     23378      3450  TIP3      OH2           -27.1540402111       -8.5070258971      -41.3328699288  TIP3      3304            0.0000000000
     23379      3450  TIP3      H1            -26.5405615048       -8.3847810602      -42.0733278165  TIP3      3304            0.0000000000
     23380      3450  TIP3      H2            -26.5306212184       -8.3997750305      -40.5863817984  TIP3      3304            0.0000000000
     23381      3451  TIP3      OH2           -22.1059903979       -8.0226777397      -38.7552898114  TIP3      3305            0.0000000000
     23382      3451  TIP3      H1            -21.3577747758       -8.5802717597      -38.5172447339  TIP3      3305            0.0000000000
     23383      3451  TIP3      H2            -21.8848773555       -7.2419249819      -38.2108317208  TIP3      3305            0.0000000000
     23384      3452  TIP3      OH2           -20.2349980107        7.6544333448      -40.7158517803  TIP3      3306            0.0000000000
     23385      3452  TIP3      H1            -20.1494921445        8.2274033667      -41.4878792999  TIP3      3306            0.0000000000
     23386      3452  TIP3      H2            -19.7103059333        6.8694047470      -40.9901355601  TIP3      3306            0.0000000000
     23387      3453  TIP3      OH2           -13.2301373178        5.8394052490      -37.5538513530  TIP3      3307            0.0000000000
     23388      3453  TIP3      H1            -13.5231470078        5.0894050304      -38.1238950928  TIP3      3307            0.0000000000
     23389      3453  TIP3      H2            -13.4432756042        6.5741839862      -38.1590255058  TIP3      3307            0.0000000000
     23390      3454  TIP3      OH2           -27.3756668497      -10.1008356748      -26.1876286896  TIP3      3308            0.0000000000
     23391      3454  TIP3      H1            -27.8854393177      -10.9258225349      -26.1009839327  TIP3      3308            0.0000000000
     23392      3454  TIP3      H2            -26.5888371491      -10.2670188900      -25.6302420936  TIP3      3308            0.0000000000
     23393      3455  TIP3      OH2           -25.3039920256      -10.4549853252      -24.2746161074  TIP3      3309            0.0000000000
     23394      3455  TIP3      H1            -24.6377758906      -11.0774346563      -24.6248621724  TIP3      3309            0.0000000000
     23395      3455  TIP3      H2            -25.8521281745      -11.0623900746      -23.7364664305  TIP3      3309            0.0000000000
     23396      3456  TIP3      OH2           -27.0360377218        6.5389422452      -41.9725660280  TIP3      3310            0.0000000000
     23397      3456  TIP3      H1            -27.7057127290        7.0741211762      -41.5087931553  TIP3      3310            0.0000000000
     23398      3456  TIP3      H2            -26.5788047605        6.1802106216      -41.1997876319  TIP3      3310            0.0000000000
     23399      3457  TIP3      OH2           -17.4527888871      -11.2731625368      -23.9744307283  TIP3      3311            0.0000000000
     23400      3457  TIP3      H1            -17.8417701598      -12.0768933202      -23.5908927194  TIP3      3311            0.0000000000
     23401      3457  TIP3      H2            -16.5276727889      -11.5453075160      -24.1255035202  TIP3      3311            0.0000000000
     23402      3458  TIP3      OH2           -13.4702535506        4.8099372814      -26.1604100127  TIP3      3312            0.0000000000
     23403      3458  TIP3      H1            -14.1973032192        4.6443814498      -26.7940572699  TIP3      3312            0.0000000000
     23404      3458  TIP3      H2            -13.7182654164        5.7104743459      -25.9085766673  TIP3      3312            0.0000000000
     23405      3459  TIP3      OH2             0.9531579790       -1.0875006054      -35.7280052463  TIP3      3313            0.0000000000
     23406      3459  TIP3      H1              0.5427268462       -0.2111100288      -35.9310103164  TIP3      3313            0.0000000000
     23407      3459  TIP3      H2              0.2295559083       -1.7085413280      -35.9060557249  TIP3      3313            0.0000000000
     23408      3460  TIP3      OH2            -0.6352435579       -2.3543836743      -32.5970709035  TIP3      3314            0.0000000000
     23409      3460  TIP3      H1             -0.6503028323       -2.6570111861      -31.6685606926  TIP3      3314            0.0000000000
     23410      3460  TIP3      H2             -1.4778538128       -2.6726471029      -32.9586358075  TIP3      3314            0.0000000000
     23411      3461  TIP3      OH2            -8.3909251503       -2.2045748220      -30.6327352351  TIP3      3315            0.0000000000
     23412      3461  TIP3      H1             -8.4582444928       -3.1232906225      -30.3157851117  TIP3      3315            0.0000000000
     23413      3461  TIP3      H2             -7.8567949501       -1.8175422929      -29.9116511699  TIP3      3315            0.0000000000
     23414      3462  TIP3      OH2             2.6716778106        1.1063908318      -33.6233025452  TIP3      3316            0.0000000000
     23415      3462  TIP3      H1              2.3919971612        0.3468544474      -33.0923786603  TIP3      3316            0.0000000000
     23416      3462  TIP3      H2              2.9449173015        1.7580921814      -32.9598062643  TIP3      3316            0.0000000000
     23417      3463  TIP3      OH2            -7.0654200960        2.4931003673      -32.1678584946  TIP3      3317            0.0000000000
     23418      3463  TIP3      H1             -7.6024281275        1.7419330168      -32.4542740949  TIP3      3317            0.0000000000
     23419      3463  TIP3      H2             -6.1892784201        2.1934457821      -32.4734605980  TIP3      3317            0.0000000000
     23420      3464  TIP3      OH2           -10.5597916773       -4.3966800630      -36.9116322208  TIP3      3318            0.0000000000
     23421      3464  TIP3      H1            -11.1189382366       -3.7439488589      -36.4699103311  TIP3      3318            0.0000000000
     23422      3464  TIP3      H2            -10.9797282768       -4.3835161392      -37.7902956395  TIP3      3318            0.0000000000
     23423      3465  TIP3      OH2           -10.4150056629       -1.9478756202      -34.4239216980  TIP3      3319            0.0000000000
     23424      3465  TIP3      H1            -10.0858603798       -2.8602853411      -34.3453481734  TIP3      3319            0.0000000000
     23425      3465  TIP3      H2             -9.6226872111       -1.4548084668      -34.6879609920  TIP3      3319            0.0000000000
     23426      3466  TIP3      OH2             0.3745636827        6.6450172085      -33.8485010171  TIP3      3320            0.0000000000
     23427      3466  TIP3      H1              0.8938120205        5.8746892169      -34.1841740028  TIP3      3320            0.0000000000
     23428      3466  TIP3      H2             -0.2592227604        6.2317392682      -33.2371821575  TIP3      3320            0.0000000000
     23429      3467  TIP3      OH2            -2.3303163352        0.3326482718      -31.5434884026  TIP3      3321            0.0000000000
     23430      3467  TIP3      H1             -2.0725381250        0.0700427758      -32.4409197500  TIP3      3321            0.0000000000
     23431      3467  TIP3      H2             -1.5203230670        0.7878120828      -31.2443857571  TIP3      3321            0.0000000000
     23432      3468  TIP3      OH2             6.2316427415       -7.9720852816      -31.5275476518  TIP3      3322            0.0000000000
     23433      3468  TIP3      H1              6.2254686012       -7.4169717280      -30.7278366231  TIP3      3322            0.0000000000
     23434      3468  TIP3      H2              7.1364786383       -7.7945099790      -31.8285487471  TIP3      3322            0.0000000000
     23435      3469  TIP3      OH2             1.2596020875       -4.9908800467      -31.2670772929  TIP3      3323            0.0000000000
     23436      3469  TIP3      H1              1.4947815622       -5.9250340627      -31.1400700437  TIP3      3323            0.0000000000
     23437      3469  TIP3      H2              1.0951675836       -4.9850985520      -32.2394463642  TIP3      3323            0.0000000000
     23438      3470  TIP3      OH2            -5.8866366239       -7.3042484513      -34.5277540909  TIP3      3324            0.0000000000
     23439      3470  TIP3      H1             -5.7689133061       -6.5246481772      -35.1082810752  TIP3      3324            0.0000000000
     23440      3470  TIP3      H2             -6.4205858807       -7.8661588838      -35.1210107951  TIP3      3324            0.0000000000
     23441      3471  TIP3      OH2             1.8115026790       -7.0736958104      -35.9988456234  TIP3      3325            0.0000000000
     23442      3471  TIP3      H1              2.3452305524       -7.4447050663      -35.2697516562  TIP3      3325            0.0000000000
     23443      3471  TIP3      H2              2.3854724712       -6.3570159312      -36.3198905535  TIP3      3325            0.0000000000
     23444      3472  TIP3      OH2            -9.2721473184       -4.6157142373      -33.4146169992  TIP3      3326            0.0000000000
     23445      3472  TIP3      H1             -8.5806061139       -4.9740345286      -32.8207468577  TIP3      3326            0.0000000000
     23446      3472  TIP3      H2             -9.0092744080       -5.0216017794      -34.2709239899  TIP3      3326            0.0000000000
     23447      3473  TIP3      OH2            -5.0070374897       -3.1639112425      -34.2797849833  TIP3      3327            0.0000000000
     23448      3473  TIP3      H1             -4.0698214574       -3.4229971978      -34.1398591105  TIP3      3327            0.0000000000
     23449      3473  TIP3      H2             -5.3445490333       -3.9340528395      -34.8018331038  TIP3      3327            0.0000000000
     23450      3474  TIP3      OH2             6.4174088662       -6.7309201293      -28.8624122923  TIP3      3328            0.0000000000
     23451      3474  TIP3      H1              6.0753712293       -5.8844795471      -29.2380580877  TIP3      3328            0.0000000000
     23452      3474  TIP3      H2              6.6051245515       -6.4451360762      -27.9525539395  TIP3      3328            0.0000000000
     23453      3475  TIP3      OH2            -6.7289087074       -7.9598953516      -30.3472843444  TIP3      3329            0.0000000000
     23454      3475  TIP3      H1             -7.0555661690       -7.3405783752      -31.0423486818  TIP3      3329            0.0000000000
     23455      3475  TIP3      H2             -7.4057368937       -7.8428702974      -29.6445325062  TIP3      3329            0.0000000000
     23456      3476  TIP3      OH2            -0.0469877958        1.1849035819      -36.8372214602  TIP3      3330            0.0000000000
     23457      3476  TIP3      H1             -0.1526901623        1.2661163521      -37.8043437734  TIP3      3330            0.0000000000
     23458      3476  TIP3      H2             -0.6052744175        1.9402203344      -36.5296169826  TIP3      3330            0.0000000000
     23459      3477  TIP3      OH2            -4.7702458698       -0.2832674081      -30.5166258460  TIP3      3331            0.0000000000
     23460      3477  TIP3      H1             -5.2660291863        0.4471193594      -30.0693272814  TIP3      3331            0.0000000000
     23461      3477  TIP3      H2             -3.9391570386        0.1555459481      -30.7968834392  TIP3      3331            0.0000000000
     23462      3478  TIP3      OH2             3.3994271337       -7.4781676522      -33.5655387265  TIP3      3332            0.0000000000
     23463      3478  TIP3      H1              2.6769614567       -7.7988313211      -32.9847371628  TIP3      3332            0.0000000000
     23464      3478  TIP3      H2              4.0326747041       -7.1129483694      -32.9249960403  TIP3      3332            0.0000000000
     23465      3479  TIP3      OH2            -7.1229412181       -6.1790552015      -32.3346380042  TIP3      3333            0.0000000000
     23466      3479  TIP3      H1             -6.5938462643       -5.4807968696      -31.8818679616  TIP3      3333            0.0000000000
     23467      3479  TIP3      H2             -6.5114551748       -6.5015216969      -33.0447313897  TIP3      3333            0.0000000000
     23468      3480  TIP3      OH2            -6.0321424497        1.7072466743      -29.3180756077  TIP3      3334            0.0000000000
     23469      3480  TIP3      H1             -6.1210128891        2.6416740763      -29.5837882854  TIP3      3334            0.0000000000
     23470      3480  TIP3      H2             -6.9206591542        1.5807486879      -28.8915855011  TIP3      3334            0.0000000000
     23471      3481  TIP3      OH2           -10.2608977335        0.8868315564      -38.7938516012  TIP3      3335            0.0000000000
     23472      3481  TIP3      H1            -10.3841976405        1.2877877263      -39.6824543401  TIP3      3335            0.0000000000
     23473      3481  TIP3      H2            -10.0881636473        1.6966490544      -38.2552864104  TIP3      3335            0.0000000000
     23474      3482  TIP3      OH2             3.4377393211        2.9729116399      -31.7099332053  TIP3      3336            0.0000000000
     23475      3482  TIP3      H1              2.5001281456        3.1988841326      -31.5280420922  TIP3      3336            0.0000000000
     23476      3482  TIP3      H2              3.6738520195        3.8049962792      -32.1716300374  TIP3      3336            0.0000000000
     23477      3483  TIP3      OH2             3.6099084855       -8.8445465668      -30.5216228919  TIP3      3337            0.0000000000
     23478      3483  TIP3      H1              2.9113560652       -8.5622553056      -31.1474694628  TIP3      3337            0.0000000000
     23479      3483  TIP3      H2              4.4320677076       -8.7107680294      -31.0314953340  TIP3      3337            0.0000000000
     23480      3484  TIP3      OH2            -3.4067480275      -10.7310606825      -33.0241386564  TIP3      3338            0.0000000000
     23481      3484  TIP3      H1             -3.4595191532      -11.6984873582      -32.9716987609  TIP3      3338            0.0000000000
     23482      3484  TIP3      H2             -4.2997246582      -10.4744811148      -32.6770082561  TIP3      3338            0.0000000000
     23483      3485  TIP3      OH2             1.8303055572        4.7539641044      -35.1185750432  TIP3      3339            0.0000000000
     23484      3485  TIP3      H1              2.1603470695        3.9809755008      -35.6278661909  TIP3      3339            0.0000000000
     23485      3485  TIP3      H2              2.5664410092        5.3963360222      -35.2416379001  TIP3      3339            0.0000000000
     23486      3486  TIP3      OH2             2.8791954149        2.6340887471      -36.5834728809  TIP3      3340            0.0000000000
     23487      3486  TIP3      H1              2.7160604638        1.9525937781      -37.2572574377  TIP3      3340            0.0000000000
     23488      3486  TIP3      H2              2.7934350520        2.1223218494      -35.7613218034  TIP3      3340            0.0000000000
     23489      3487  TIP3      OH2             4.6190561473        1.2800269035      -27.9486643793  TIP3      3341            0.0000000000
     23490      3487  TIP3      H1              4.7670533781        0.4326752379      -28.4166490892  TIP3      3341            0.0000000000
     23491      3487  TIP3      H2              5.0541388496        1.9177085112      -28.5596480626  TIP3      3341            0.0000000000
     23492      3488  TIP3      OH2            -0.9252851294       -1.9958197916      -38.5184396839  TIP3      3342            0.0000000000
     23493      3488  TIP3      H1             -1.5267527216       -1.2159957801      -38.5598299809  TIP3      3342            0.0000000000
     23494      3488  TIP3      H2             -0.0522154348       -1.6032578259      -38.7282311767  TIP3      3342            0.0000000000
     23495      3489  TIP3      OH2            -0.9582746589       -2.9539525048      -41.0878897102  TIP3      3343            0.0000000000
     23496      3489  TIP3      H1             -0.5586493824       -2.7494215983      -40.2148388156  TIP3      3343            0.0000000000
     23497      3489  TIP3      H2             -0.5076447020       -3.7767152378      -41.3081448749  TIP3      3343            0.0000000000
     23498      3490  TIP3      OH2             6.2674038943       -2.0764079794      -29.7517542432  TIP3      3344            0.0000000000
     23499      3490  TIP3      H1              5.6110924920       -1.5334257647      -30.2198100379  TIP3      3344            0.0000000000
     23500      3490  TIP3      H2              7.0510155391       -1.8993441923      -30.3196840835  TIP3      3344            0.0000000000
     23501      3491  TIP3      OH2             3.1448873553       -1.5728531760      -37.1972436182  TIP3      3345            0.0000000000
     23502      3491  TIP3      H1              2.3448642155       -1.3929922523      -36.6453429019  TIP3      3345            0.0000000000
     23503      3491  TIP3      H2              3.6994975859       -2.0300687719      -36.5240426656  TIP3      3345            0.0000000000
     23504      3492  TIP3      OH2             2.6507100360       -3.4495475200      -28.0881940454  TIP3      3346            0.0000000000
     23505      3492  TIP3      H1              2.4336985210       -2.5102976413      -28.0426348941  TIP3      3346            0.0000000000
     23506      3492  TIP3      H2              1.9595120645       -3.7317942756      -28.7097813393  TIP3      3346            0.0000000000
     23507      3493  TIP3      OH2            -6.2244362461       -1.3524835848      -35.7914450471  TIP3      3347            0.0000000000
     23508      3493  TIP3      H1             -6.1763165267       -1.7260301840      -36.6961288005  TIP3      3347            0.0000000000
     23509      3493  TIP3      H2             -5.7118788376       -2.0128365592      -35.2865382294  TIP3      3347            0.0000000000
     23510      3494  TIP3      OH2            -4.4358194734        2.0624428907      -33.0205912147  TIP3      3348            0.0000000000
     23511      3494  TIP3      H1             -4.5446634574        1.8286941538      -33.9508255709  TIP3      3348            0.0000000000
     23512      3494  TIP3      H2             -3.8077950863        1.3937772068      -32.7103339700  TIP3      3348            0.0000000000
     23513      3495  TIP3      OH2            -5.7344678840       -2.4478719640      -31.6666676102  TIP3      3349            0.0000000000
     23514      3495  TIP3      H1             -5.4821934784       -2.4378602319      -32.6113148965  TIP3      3349            0.0000000000
     23515      3495  TIP3      H2             -5.5004114235       -1.5473869749      -31.3495578456  TIP3      3349            0.0000000000
     23516      3496  TIP3      OH2             1.0249251725        3.1925585619      -30.6890072087  TIP3      3350            0.0000000000
     23517      3496  TIP3      H1              0.6811342312        3.9550281336      -30.1652297208  TIP3      3350            0.0000000000
     23518      3496  TIP3      H2              0.3457147883        2.5064767488      -30.5501181416  TIP3      3350            0.0000000000
     23519      3497  TIP3      OH2            -4.6022034205        1.5445836910      -27.0437710436  TIP3      3351            0.0000000000
     23520      3497  TIP3      H1             -5.1367064963        2.2878203678      -26.6921337899  TIP3      3351            0.0000000000
     23521      3497  TIP3      H2             -5.0477074242        1.4296120781      -27.9180773932  TIP3      3351            0.0000000000
     23522      3498  TIP3      OH2             1.6341105078       -2.2386545677      -39.3261029194  TIP3      3352            0.0000000000
     23523      3498  TIP3      H1              2.3043262270       -1.9738788011      -38.6528595782  TIP3      3352            0.0000000000
     23524      3498  TIP3      H2              2.0413562876       -1.8935550527      -40.1518364626  TIP3      3352            0.0000000000
     23525      3499  TIP3      OH2            -7.4326450784       -1.9338197323      -28.1026046129  TIP3      3353            0.0000000000
     23526      3499  TIP3      H1             -7.3089721128       -1.0779132525      -27.6652457572  TIP3      3353            0.0000000000
     23527      3499  TIP3      H2             -8.2054877399       -2.2390136223      -27.5869585422  TIP3      3353            0.0000000000
     23528      3500  TIP3      OH2            -1.2591426060        3.5278623557      -36.1952954080  TIP3      3354            0.0000000000
     23529      3500  TIP3      H1             -0.9074408631        4.2289582903      -35.6329766993  TIP3      3354            0.0000000000
     23530      3500  TIP3      H2             -1.1312587482        3.8700875635      -37.1025941131  TIP3      3354            0.0000000000
     23531      3501  TIP3      OH2            -6.1518722076        3.5960071171      -26.1575870420  TIP3      3355            0.0000000000
     23532      3501  TIP3      H1             -6.0226078204        4.1405030708      -26.9653234600  TIP3      3355            0.0000000000
     23533      3501  TIP3      H2             -7.1258919277        3.4845938771      -26.1436408520  TIP3      3355            0.0000000000
     23534      3502  TIP3      OH2             5.3971721225      -10.9904051710      -39.2407566256  TIP3      3356            0.0000000000
     23535      3502  TIP3      H1              4.4327640658      -10.8128031641      -39.1657227406  TIP3      3356            0.0000000000
     23536      3502  TIP3      H2              5.7168849932      -10.1581010618      -39.6376096210  TIP3      3356            0.0000000000
     23537      3503  TIP3      OH2            -6.8413154298       -2.3458661761      -38.3663909221  TIP3      3357            0.0000000000
     23538      3503  TIP3      H1             -7.4192158710       -1.5853724243      -38.5905549506  TIP3      3357            0.0000000000
     23539      3503  TIP3      H2             -7.4014671807       -3.1288889853      -38.4565571282  TIP3      3357            0.0000000000
     23540      3504  TIP3      OH2             6.3284485101        3.0695952992      -41.4543578328  TIP3      3358            0.0000000000
     23541      3504  TIP3      H1              6.7399384046        3.8358960650      -41.8724473174  TIP3      3358            0.0000000000
     23542      3504  TIP3      H2              7.1095582975        2.5054986009      -41.2533013730  TIP3      3358            0.0000000000
     23543      3505  TIP3      OH2           -10.4476580283        0.4495867188      -28.9308037305  TIP3      3359            0.0000000000
     23544      3505  TIP3      H1            -10.9455709249        0.3736451315      -29.7568504258  TIP3      3359            0.0000000000
     23545      3505  TIP3      H2            -10.1487509494       -0.4802188221      -28.8374363862  TIP3      3359            0.0000000000
     23546      3506  TIP3      OH2           -11.0942275869        3.2033196528      -31.7472806151  TIP3      3360            0.0000000000
     23547      3506  TIP3      H1            -10.1941144672        3.2541918693      -32.1025057213  TIP3      3360            0.0000000000
     23548      3506  TIP3      H2            -11.1015533257        3.9591338040      -31.1316017146  TIP3      3360            0.0000000000
     23549      3507  TIP3      OH2             7.0671267513        3.5894537602      -26.2517372118  TIP3      3361            0.0000000000
     23550      3507  TIP3      H1              7.2886609050        3.0422247941      -25.4910536445  TIP3      3361            0.0000000000
     23551      3507  TIP3      H2              6.1335205143        3.8139721106      -26.0315320905  TIP3      3361            0.0000000000
     23552      3508  TIP3      OH2            -2.2392856890        2.8537797682      -27.6793989297  TIP3      3362            0.0000000000
     23553      3508  TIP3      H1             -2.3751564393        3.8164957616      -27.8578781077  TIP3      3362            0.0000000000
     23554      3508  TIP3      H2             -3.1289165953        2.5396656489      -27.4160621996  TIP3      3362            0.0000000000
     23555      3509  TIP3      OH2            -1.1897926434        7.0251419839      -38.1099782483  TIP3      3363            0.0000000000
     23556      3509  TIP3      H1             -1.3399762857        7.3661930770      -39.0127509342  TIP3      3363            0.0000000000
     23557      3509  TIP3      H2             -1.2754659835        7.8460184099      -37.5872667666  TIP3      3363            0.0000000000
     23558      3510  TIP3      OH2            -7.5627348448        5.5980926888      -35.9331163005  TIP3      3364            0.0000000000
     23559      3510  TIP3      H1             -7.3439100460        5.2419193977      -35.0361569452  TIP3      3364            0.0000000000
     23560      3510  TIP3      H2             -8.5183078470        5.4223443095      -36.0056796502  TIP3      3364            0.0000000000
     23561      3511  TIP3      OH2             1.7495461865        6.3675390413      -40.8791617478  TIP3      3365            0.0000000000
     23562      3511  TIP3      H1              2.3048948608        5.6372701320      -41.2210041593  TIP3      3365            0.0000000000
     23563      3511  TIP3      H2              1.8335677686        6.2587166401      -39.9110762501  TIP3      3365            0.0000000000
     23564      3512  TIP3      OH2             1.4539787442        6.4093581061      -38.0462897481  TIP3      3366            0.0000000000
     23565      3512  TIP3      H1              0.4768179584        6.5202236024      -37.9664187916  TIP3      3366            0.0000000000
     23566      3512  TIP3      H2              1.5833900195        5.6009807895      -37.5330446879  TIP3      3366            0.0000000000
     23567      3513  TIP3      OH2             4.3440697848       -4.5862437991      -26.3063115855  TIP3      3367            0.0000000000
     23568      3513  TIP3      H1              3.7179479399       -4.1245534696      -26.9149835319  TIP3      3367            0.0000000000
     23569      3513  TIP3      H2              4.2885909272       -5.5317325825      -26.5766178669  TIP3      3367            0.0000000000
     23570      3514  TIP3      OH2            -8.3716356048        1.8315946254      -28.1149938589  TIP3      3368            0.0000000000
     23571      3514  TIP3      H1             -8.4625253988        1.8466923003      -27.1454819743  TIP3      3368            0.0000000000
     23572      3514  TIP3      H2             -9.2622347565        1.4807629058      -28.3438706542  TIP3      3368            0.0000000000
     23573      3515  TIP3      OH2            -5.6115804185       -9.6341002205      -32.0475169046  TIP3      3369            0.0000000000
     23574      3515  TIP3      H1             -6.4293182095       -9.5280394372      -32.5629966444  TIP3      3369            0.0000000000
     23575      3515  TIP3      H2             -5.8579452259       -9.1419902551      -31.2331637233  TIP3      3369            0.0000000000
     23576      3516  TIP3      OH2            -0.5007432529      -10.1823022475      -28.9497280474  TIP3      3370            0.0000000000
     23577      3516  TIP3      H1             -0.1978886352      -10.6388973999      -28.1356159812  TIP3      3370            0.0000000000
     23578      3516  TIP3      H2             -1.4531551268      -10.0673182095      -28.7862272456  TIP3      3370            0.0000000000
     23579      3517  TIP3      OH2             1.7921978502       -6.0623906290      -27.9656769369  TIP3      3371            0.0000000000
     23580      3517  TIP3      H1              1.1109618039       -6.2525025563      -27.2661268000  TIP3      3371            0.0000000000
     23581      3517  TIP3      H2              2.2092015065       -5.2731955165      -27.5790379223  TIP3      3371            0.0000000000
     23582      3518  TIP3      OH2             2.7767666881       -1.2429584745      -41.4696924110  TIP3      3372            0.0000000000
     23583      3518  TIP3      H1              2.9355586407       -1.1391230932      -42.4180619938  TIP3      3372            0.0000000000
     23584      3518  TIP3      H2              2.9092741080       -0.3312444604      -41.1570186656  TIP3      3372            0.0000000000
     23585      3519  TIP3      OH2            -1.4372212786       -7.0317310998      -41.2299822744  TIP3      3373            0.0000000000
     23586      3519  TIP3      H1             -1.7314289427       -7.2887896499      -40.3405673910  TIP3      3373            0.0000000000
     23587      3519  TIP3      H2             -2.0247405420       -7.5397297118      -41.8053713232  TIP3      3373            0.0000000000
     23588      3520  TIP3      OH2            -5.7086746849       -4.7652019802      -30.5426662204  TIP3      3374            0.0000000000
     23589      3520  TIP3      H1             -6.4615945482       -4.6930905819      -29.9295872547  TIP3      3374            0.0000000000
     23590      3520  TIP3      H2             -5.7258268586       -3.8593184150      -30.9436309663  TIP3      3374            0.0000000000
     23591      3521  TIP3      OH2            -5.8502500845       -5.0867809921      -36.0686411409  TIP3      3375            0.0000000000
     23592      3521  TIP3      H1             -6.8224571513       -5.1777583203      -36.1378452251  TIP3      3375            0.0000000000
     23593      3521  TIP3      H2             -5.5371471898       -5.2893936459      -36.9834104631  TIP3      3375            0.0000000000
     23594      3522  TIP3      OH2            -0.0448477734       -3.7735637513      -36.7922285181  TIP3      3376            0.0000000000
     23595      3522  TIP3      H1             -0.4477159658       -3.1400929991      -37.4340540699  TIP3      3376            0.0000000000
     23596      3522  TIP3      H2              0.5259298893       -4.2767252967      -37.4191999533  TIP3      3376            0.0000000000
     23597      3523  TIP3      OH2            -1.7717987205       -3.9569514093      -25.4035228553  TIP3      3377            0.0000000000
     23598      3523  TIP3      H1             -1.9979113551       -4.8931504218      -25.2033290523  TIP3      3377            0.0000000000
     23599      3523  TIP3      H2             -0.8850182605       -3.9137918580      -25.0112515328  TIP3      3377            0.0000000000
     23600      3524  TIP3      OH2             0.9461952371       -4.4968895820      -33.8981953541  TIP3      3378            0.0000000000
     23601      3524  TIP3      H1              0.5051677987       -3.6916270748      -34.2266518121  TIP3      3378            0.0000000000
     23602      3524  TIP3      H2              0.9483817759       -5.0280733807      -34.7066370958  TIP3      3378            0.0000000000
     23603      3525  TIP3      OH2            -8.3671210927       -4.8874970452      -29.6236042194  TIP3      3379            0.0000000000
     23604      3525  TIP3      H1             -8.1815238292       -4.8029707372      -28.6737368672  TIP3      3379            0.0000000000
     23605      3525  TIP3      H2             -8.8537555155       -5.7268139781      -29.7072819885  TIP3      3379            0.0000000000
     23606      3526  TIP3      OH2            -4.9831372667       -6.9628005377      -41.7036794386  TIP3      3380            0.0000000000
     23607      3526  TIP3      H1             -5.3326859299       -7.5660129071      -41.0084862740  TIP3      3380            0.0000000000
     23608      3526  TIP3      H2             -5.2442563911       -6.0933831778      -41.3438259768  TIP3      3380            0.0000000000
     23609      3527  TIP3      OH2           -11.2273207051       -7.4530734027      -34.7291130731  TIP3      3381            0.0000000000
     23610      3527  TIP3      H1            -10.4150067256       -7.4081445476      -34.1955162717  TIP3      3381            0.0000000000
     23611      3527  TIP3      H2            -10.9658742056       -7.0713639197      -35.5811177272  TIP3      3381            0.0000000000
     23612      3528  TIP3      OH2           -10.3850504893       -6.9544035615      -39.7478344649  TIP3      3382            0.0000000000
     23613      3528  TIP3      H1             -9.7901234243       -6.5013322673      -40.3762518052  TIP3      3382            0.0000000000
     23614      3528  TIP3      H2            -10.9448691192       -6.2069086034      -39.4553011344  TIP3      3382            0.0000000000
     23615      3529  TIP3      OH2            -0.0152391431       -2.7716540428      -29.8947389343  TIP3      3383            0.0000000000
     23616      3529  TIP3      H1              0.5717146609       -3.4367777079      -30.3116691123  TIP3      3383            0.0000000000
     23617      3529  TIP3      H2             -0.5611731354       -3.3419157297      -29.2977048439  TIP3      3383            0.0000000000
     23618      3530  TIP3      OH2            -2.6845379617       -7.5979811066      -34.8780801657  TIP3      3384            0.0000000000
     23619      3530  TIP3      H1             -3.6468411852       -7.6493903019      -34.7546657010  TIP3      3384            0.0000000000
     23620      3530  TIP3      H2             -2.3444440837       -7.8077942187      -33.9853031422  TIP3      3384            0.0000000000
     23621      3531  TIP3      OH2            -8.4774813720       -5.8708520692      -35.7546162371  TIP3      3385            0.0000000000
     23622      3531  TIP3      H1             -9.0893207247       -5.3399312026      -36.3247256582  TIP3      3385            0.0000000000
     23623      3531  TIP3      H2             -8.4398343241       -6.7147188151      -36.2491969174  TIP3      3385            0.0000000000
     23624      3532  TIP3      OH2            -4.8973572656       -5.4850064321      -38.5450634428  TIP3      3386            0.0000000000
     23625      3532  TIP3      H1             -3.9780224907       -5.2426902290      -38.3312441476  TIP3      3386            0.0000000000
     23626      3532  TIP3      H2             -5.1756142584       -4.8113316407      -39.1982152775  TIP3      3386            0.0000000000
     23627      3533  TIP3      OH2             1.3724170414       -7.9626098161      -31.8375689107  TIP3      3387            0.0000000000
     23628      3533  TIP3      H1              0.7195246124       -7.8246585135      -31.1213340153  TIP3      3387            0.0000000000
     23629      3533  TIP3      H2              0.8590806481       -8.5524611113      -32.4148498030  TIP3      3387            0.0000000000
     23630      3534  TIP3      OH2            -5.8607328417       -4.3811576644      -40.9482412471  TIP3      3388            0.0000000000
     23631      3534  TIP3      H1             -6.4640475334       -4.5318966805      -41.6967314129  TIP3      3388            0.0000000000
     23632      3534  TIP3      H2             -5.0936014139       -3.9527166567      -41.3794672194  TIP3      3388            0.0000000000
     23633      3535  TIP3      OH2             4.2318645321        7.5043657141      -25.2795139172  TIP3      3389            0.0000000000
     23634      3535  TIP3      H1              4.3021458836        7.9555710082      -26.1361956271  TIP3      3389            0.0000000000
     23635      3535  TIP3      H2              4.9343337750        7.9923173337      -24.7909970241  TIP3      3389            0.0000000000
     23636      3536  TIP3      OH2            -7.7301731903       -0.0663017798      -25.8540217466  TIP3      3390            0.0000000000
     23637      3536  TIP3      H1             -6.9827020972        0.4231657482      -25.4828428401  TIP3      3390            0.0000000000
     23638      3536  TIP3      H2             -8.3907818581       -0.0068525444      -25.1467028597  TIP3      3390            0.0000000000
     23639      3537  TIP3      OH2            -2.7331873663       -4.1710969423      -33.2041278603  TIP3      3391            0.0000000000
     23640      3537  TIP3      H1             -1.9636814139       -4.7530869254      -33.1970589606  TIP3      3391            0.0000000000
     23641      3537  TIP3      H2             -3.2354055216       -4.5349761184      -32.4465863205  TIP3      3391            0.0000000000
     23642      3538  TIP3      OH2            -7.3111231145       -8.5904941751      -36.4925176476  TIP3      3392            0.0000000000
     23643      3538  TIP3      H1             -7.9075009882       -9.2303658589      -36.0419153012  TIP3      3392            0.0000000000
     23644      3538  TIP3      H2             -6.7109649913       -9.2022364402      -36.9536227736  TIP3      3392            0.0000000000
     23645      3539  TIP3      OH2            -3.4706114373       -6.0256526602      -30.8187611706  TIP3      3393            0.0000000000
     23646      3539  TIP3      H1             -4.3280364836       -5.5504613696      -30.6995731428  TIP3      3393            0.0000000000
     23647      3539  TIP3      H2             -2.8964689935       -5.6004201078      -30.1649242851  TIP3      3393            0.0000000000
     23648      3540  TIP3      OH2            -2.6188493331        0.0622815667      -38.5505006930  TIP3      3394            0.0000000000
     23649      3540  TIP3      H1             -3.3321571901       -0.4526552705      -38.9854247307  TIP3      3394            0.0000000000
     23650      3540  TIP3      H2             -3.0953712718        0.3820594646      -37.7445167993  TIP3      3394            0.0000000000
     23651      3541  TIP3      OH2             4.3297603402        0.1179302563      -30.3095397942  TIP3      3395            0.0000000000
     23652      3541  TIP3      H1              5.0728756328        0.5145961986      -30.8354653501  TIP3      3395            0.0000000000
     23653      3541  TIP3      H2              3.8738056971       -0.4447452106      -30.9640357978  TIP3      3395            0.0000000000
     23654      3542  TIP3      OH2             1.1527442682       -6.9838980470      -40.5206566247  TIP3      3396            0.0000000000
     23655      3542  TIP3      H1              0.2491563046       -6.8753944499      -40.8875967146  TIP3      3396            0.0000000000
     23656      3542  TIP3      H2              1.3648636049       -6.0583454736      -40.3131393308  TIP3      3396            0.0000000000
     23657      3543  TIP3      OH2            -0.9951417572        0.4243023653      -27.2881481151  TIP3      3397            0.0000000000
     23658      3543  TIP3      H1             -1.5516815940       -0.1327823528      -26.7184666010  TIP3      3397            0.0000000000
     23659      3543  TIP3      H2             -1.4566823643        1.2921812685      -27.1968076216  TIP3      3397            0.0000000000
     23660      3544  TIP3      OH2             1.4941878725       -4.8497960302      -38.7015682237  TIP3      3398            0.0000000000
     23661      3544  TIP3      H1              2.2897123071       -5.1344219283      -38.2095574396  TIP3      3398            0.0000000000
     23662      3544  TIP3      H2              1.7748833781       -3.9591910431      -39.0047694434  TIP3      3398            0.0000000000
     23663      3545  TIP3      OH2            -7.5855222000       -0.4501153672      -33.6042403897  TIP3      3399            0.0000000000
     23664      3545  TIP3      H1             -7.1603320166       -0.7258794355      -34.4452581091  TIP3      3399            0.0000000000
     23665      3545  TIP3      H2             -7.2109547105       -1.0679931721      -32.9656031656  TIP3      3399            0.0000000000
     23666      3546  TIP3      OH2            -0.6579100232        1.5570792682      -39.7213440155  TIP3      3400            0.0000000000
     23667      3546  TIP3      H1             -1.0916834359        2.4252709603      -39.5630777726  TIP3      3400            0.0000000000
     23668      3546  TIP3      H2             -1.3510043465        0.9457724342      -39.3796127202  TIP3      3400            0.0000000000
     23669      3547  TIP3      OH2           -10.3076833677       -2.2761701889      -27.9900384428  TIP3      3401            0.0000000000
     23670      3547  TIP3      H1            -10.5889187582       -2.8691564836      -27.2641395374  TIP3      3401            0.0000000000
     23671      3547  TIP3      H2            -10.8456908644       -2.5977956325      -28.7372665685  TIP3      3401            0.0000000000
     23672      3548  TIP3      OH2            -4.3074364173       -2.6393641725      -25.8239671151  TIP3      3402            0.0000000000
     23673      3548  TIP3      H1             -5.0007007489       -3.0989995595      -26.3342009817  TIP3      3402            0.0000000000
     23674      3548  TIP3      H2             -3.5114277847       -3.1978634762      -25.9407935630  TIP3      3402            0.0000000000
     23675      3549  TIP3      OH2             1.3149063879        2.6846686957      -27.5388472830  TIP3      3403            0.0000000000
     23676      3549  TIP3      H1              0.3563458728        2.7901137484      -27.6269089862  TIP3      3403            0.0000000000
     23677      3549  TIP3      H2              1.4451661490        3.2459718559      -26.7365712199  TIP3      3403            0.0000000000
     23678      3550  TIP3      OH2             6.8208986645       -5.1463133170      -39.2797937110  TIP3      3404            0.0000000000
     23679      3550  TIP3      H1              6.0787415953       -5.1254044607      -39.9183154539  TIP3      3404            0.0000000000
     23680      3550  TIP3      H2              7.0563622233       -4.2011819575      -39.3227337336  TIP3      3404            0.0000000000
     23681      3551  TIP3      OH2             6.9421802650        0.8009271711      -26.4928812374  TIP3      3405            0.0000000000
     23682      3551  TIP3      H1              6.1684977654        1.3812508559      -26.6559775469  TIP3      3405            0.0000000000
     23683      3551  TIP3      H2              7.4028165131        0.8195421620      -27.3627605714  TIP3      3405            0.0000000000
     23684      3552  TIP3      OH2             4.8482437382        3.8980781566      -39.2939185673  TIP3      3406            0.0000000000
     23685      3552  TIP3      H1              4.8064131145        3.0820518475      -38.7797293452  TIP3      3406            0.0000000000
     23686      3552  TIP3      H2              5.4169290170        3.6725930766      -40.0613038501  TIP3      3406            0.0000000000
     23687      3553  TIP3      OH2             2.4146542709       -1.2509223642      -31.9348221611  TIP3      3407            0.0000000000
     23688      3553  TIP3      H1              1.5207125495       -1.5708926414      -32.1371413988  TIP3      3407            0.0000000000
     23689      3553  TIP3      H2              2.9474528161       -1.8864102965      -32.4689827564  TIP3      3407            0.0000000000
     23690      3554  TIP3      OH2            -5.3533915443        2.9608751784      -36.0056166123  TIP3      3408            0.0000000000
     23691      3554  TIP3      H1             -5.0631206340        3.9015889176      -36.0331455697  TIP3      3408            0.0000000000
     23692      3554  TIP3      H2             -6.2464083053        3.0271689466      -36.3554385131  TIP3      3408            0.0000000000
     23693      3555  TIP3      OH2            -9.1411221483       -2.1545622424      -41.1996466174  TIP3      3409            0.0000000000
     23694      3555  TIP3      H1             -8.7220729166       -1.5469366046      -40.5546315151  TIP3      3409            0.0000000000
     23695      3555  TIP3      H2            -10.0264543811       -2.2848335684      -40.8162530976  TIP3      3409            0.0000000000
     23696      3556  TIP3      OH2            -4.1208562688        0.6648321664      -36.4018967591  TIP3      3410            0.0000000000
     23697      3556  TIP3      H1             -4.5738431533        1.5411426548      -36.3442738896  TIP3      3410            0.0000000000
     23698      3556  TIP3      H2             -4.5905691443        0.1334584701      -35.7441612853  TIP3      3410            0.0000000000
     23699      3557  TIP3      OH2            -3.4764478058        4.9740393904      -30.8051554159  TIP3      3411            0.0000000000
     23700      3557  TIP3      H1             -3.7048426180        5.8623658083      -30.4873386257  TIP3      3411            0.0000000000
     23701      3557  TIP3      H2             -2.8236231567        4.7369014808      -30.1245316748  TIP3      3411            0.0000000000
     23702      3558  TIP3      OH2            -4.8300777813        5.5423009616      -36.6355729406  TIP3      3412            0.0000000000
     23703      3558  TIP3      H1             -5.8111255115        5.6004245677      -36.5703079427  TIP3      3412            0.0000000000
     23704      3558  TIP3      H2             -4.6054690789        6.4037364407      -36.2295438722  TIP3      3412            0.0000000000
     23705      3559  TIP3      OH2             0.0491557304        0.7272285036      -30.0767413114  TIP3      3413            0.0000000000
     23706      3559  TIP3      H1             -0.4306778734        0.6161672034      -29.2289736844  TIP3      3413            0.0000000000
     23707      3559  TIP3      H2              0.1904846422       -0.1993543942      -30.3350418529  TIP3      3413            0.0000000000
     23708      3560  TIP3      OH2             2.5029093780        2.2466983268      -40.6869064220  TIP3      3414            0.0000000000
     23709      3560  TIP3      H1              2.9546289665        1.8761010789      -39.8985209572  TIP3      3414            0.0000000000
     23710      3560  TIP3      H2              1.6322582300        1.8172780809      -40.6047024797  TIP3      3414            0.0000000000
     23711      3561  TIP3      OH2             3.1398263502        5.2408002030      -27.6085449742  TIP3      3415            0.0000000000
     23712      3561  TIP3      H1              2.2794501310        4.8813784790      -27.8984124768  TIP3      3415            0.0000000000
     23713      3561  TIP3      H2              3.2305851183        6.0301946986      -28.1918768098  TIP3      3415            0.0000000000
     23714      3562  TIP3      OH2             6.9245656487        6.2973004202      -40.5488709830  TIP3      3416            0.0000000000
     23715      3562  TIP3      H1              7.3385044352        6.9142798245      -41.1730894796  TIP3      3416            0.0000000000
     23716      3562  TIP3      H2              6.2630853038        6.8768840773      -40.1366985341  TIP3      3416            0.0000000000
     23717      3563  TIP3      OH2            -8.7211938093       -7.8002398451      -28.3906240066  TIP3      3417            0.0000000000
     23718      3563  TIP3      H1             -9.2187420819       -7.2754884429      -27.7498670778  TIP3      3417            0.0000000000
     23719      3563  TIP3      H2             -8.7905841479       -8.6647732208      -27.9394145419  TIP3      3417            0.0000000000
     23720      3564  TIP3      OH2             3.2873569906        0.5981865249      -38.7750131593  TIP3      3418            0.0000000000
     23721      3564  TIP3      H1              3.1043340777       -0.2314570625      -38.2797513577  TIP3      3418            0.0000000000
     23722      3564  TIP3      H2              4.2584348691        0.5526615513      -38.8008603620  TIP3      3418            0.0000000000
     23723      3565  TIP3      OH2            -8.9557980836        4.1866563361      -30.0708299828  TIP3      3419            0.0000000000
     23724      3565  TIP3      H1             -8.6979791063        3.2831008807      -29.8335127931  TIP3      3419            0.0000000000
     23725      3565  TIP3      H2             -8.9083575578        4.6024332829      -29.2049619214  TIP3      3419            0.0000000000
     23726      3566  TIP3      OH2            -4.5535147341        2.4786335335      -40.0748785658  TIP3      3420            0.0000000000
     23727      3566  TIP3      H1             -4.0147525705        1.9638894037      -39.4523873591  TIP3      3420            0.0000000000
     23728      3566  TIP3      H2             -4.4023067088        3.3976769314      -39.7384485375  TIP3      3420            0.0000000000
     23729      3567  TIP3      OH2            -8.0329786229       -0.2072394116      -39.5967050598  TIP3      3421            0.0000000000
     23730      3567  TIP3      H1             -8.7541306781        0.2172068496      -39.0695498110  TIP3      3421            0.0000000000
     23731      3567  TIP3      H2             -7.6133381478        0.5458562737      -40.0447868030  TIP3      3421            0.0000000000
     23732      3568  TIP3      OH2            -0.2368232087       -7.2631652802      -29.2390101158  TIP3      3422            0.0000000000
     23733      3568  TIP3      H1              0.6004771730       -6.9608687758      -28.8275675588  TIP3      3422            0.0000000000
     23734      3568  TIP3      H2             -0.2487145961       -8.1974366106      -28.9941925736  TIP3      3422            0.0000000000
     23735      3569  TIP3      OH2             0.3652388140       -8.0457619230      -38.1910198487  TIP3      3423            0.0000000000
     23736      3569  TIP3      H1              0.7213831337       -7.6160693686      -39.0009402672  TIP3      3423            0.0000000000
     23737      3569  TIP3      H2              1.0355111922       -7.7991633481      -37.5198028220  TIP3      3423            0.0000000000
     23738      3570  TIP3      OH2            -1.6083179519        3.9501219271      -38.9217471798  TIP3      3424            0.0000000000
     23739      3570  TIP3      H1             -2.3933202050        4.5294193195      -38.9221664505  TIP3      3424            0.0000000000
     23740      3570  TIP3      H2             -1.0388433876        4.3984959899      -39.5840186986  TIP3      3424            0.0000000000
     23741      3571  TIP3      OH2            -2.2661357894       -5.9416266314      -36.9301757573  TIP3      3425            0.0000000000
     23742      3571  TIP3      H1             -1.5283055859       -5.3204969068      -36.7844853869  TIP3      3425            0.0000000000
     23743      3571  TIP3      H2             -2.3257113324       -6.4344555562      -36.0785534551  TIP3      3425            0.0000000000
     23744      3572  TIP3      OH2            -1.2888141794       -4.8304668222      -28.3549442437  TIP3      3426            0.0000000000
     23745      3572  TIP3      H1             -1.4730166607       -4.8289488239      -27.3974115165  TIP3      3426            0.0000000000
     23746      3572  TIP3      H2             -0.9694136393       -5.7382723085      -28.5730698865  TIP3      3426            0.0000000000
     23747      3573  TIP3      OH2            -1.3639794366       -9.3557253181      -36.6831531468  TIP3      3427            0.0000000000
     23748      3573  TIP3      H1             -1.7468332713       -8.6749682798      -36.0908717163  TIP3      3427            0.0000000000
     23749      3573  TIP3      H2             -0.6220113742       -8.8520494647      -37.1156490867  TIP3      3427            0.0000000000
     23750      3574  TIP3      OH2            -4.2672497180        5.0323530056      -39.2137279142  TIP3      3428            0.0000000000
     23751      3574  TIP3      H1             -4.1227220789        5.8983381093      -39.6575758522  TIP3      3428            0.0000000000
     23752      3574  TIP3      H2             -4.5078623220        5.3500502412      -38.3109700834  TIP3      3428            0.0000000000
     23753      3575  TIP3      OH2            -5.9270812747       -8.1774723443      -39.4497569128  TIP3      3429            0.0000000000
     23754      3575  TIP3      H1             -6.1194357805       -7.3613805931      -38.9682342141  TIP3      3429            0.0000000000
     23755      3575  TIP3      H2             -5.0687549257       -8.4098093544      -39.0518982279  TIP3      3429            0.0000000000
     23756      3576  TIP3      OH2             4.3208535600       -7.2080596608      -27.1359525823  TIP3      3430            0.0000000000
     23757      3576  TIP3      H1              3.3892898826       -7.4174983779      -27.3230665870  TIP3      3430            0.0000000000
     23758      3576  TIP3      H2              4.7203295598       -7.2599450954      -28.0266569977  TIP3      3430            0.0000000000
     23759      3577  TIP3      OH2             3.3178517457       -3.4798633181      -33.1617163284  TIP3      3431            0.0000000000
     23760      3577  TIP3      H1              2.4969231263       -4.0092520194      -33.1494876670  TIP3      3431            0.0000000000
     23761      3577  TIP3      H2              3.9732735089       -4.1133302206      -32.7905771956  TIP3      3431            0.0000000000
     23762      3578  TIP3      OH2            -7.4385761247        2.4478320878      -41.0679425680  TIP3      3432            0.0000000000
     23763      3578  TIP3      H1             -6.7038427959        2.7929700704      -40.5326059736  TIP3      3432            0.0000000000
     23764      3578  TIP3      H2             -6.9363835913        1.8484185612      -41.6549256151  TIP3      3432            0.0000000000
     23765      3579  TIP3      OH2            -9.1564646437       -4.8935021228      -41.4819245112  TIP3      3433            0.0000000000
     23766      3579  TIP3      H1             -8.8549996760       -3.9703831306      -41.5949218457  TIP3      3433            0.0000000000
     23767      3579  TIP3      H2             -9.9196606440       -4.9008562356      -42.0778866208  TIP3      3433            0.0000000000
     23768      3580  TIP3      OH2             4.0450523256        5.6466859869      -31.7265988537  TIP3      3434            0.0000000000
     23769      3580  TIP3      H1              4.0147413141        6.3431631674      -32.4186742892  TIP3      3434            0.0000000000
     23770      3580  TIP3      H2              5.0106929887        5.4860507739      -31.7238581692  TIP3      3434            0.0000000000
     23771      3581  TIP3      OH2            -8.3862785750      -10.1568894240      -32.6481980060  TIP3      3435            0.0000000000
     23772      3581  TIP3      H1             -8.4545811198      -10.2293794046      -33.6248779765  TIP3      3435            0.0000000000
     23773      3581  TIP3      H2             -8.7435310996      -11.0296732884      -32.3759013429  TIP3      3435            0.0000000000
     23774      3582  TIP3      OH2            -9.9635257263        3.2859399646      -37.6470974698  TIP3      3436            0.0000000000
     23775      3582  TIP3      H1            -10.4937427504        3.9251735623      -37.1522529305  TIP3      3436            0.0000000000
     23776      3582  TIP3      H2             -9.5832354575        3.9152132672      -38.3005152034  TIP3      3436            0.0000000000
     23777      3583  TIP3      OH2            -8.9676151895        5.6892547688      -25.0557774100  TIP3      3437            0.0000000000
     23778      3583  TIP3      H1             -9.0153884663        6.0504008428      -24.1457325250  TIP3      3437            0.0000000000
     23779      3583  TIP3      H2             -9.5960008049        6.2192212842      -25.5767486668  TIP3      3437            0.0000000000
     23780      3584  TIP3      OH2            -5.8047766790        5.1200727482      -23.7478011572  TIP3      3438            0.0000000000
     23781      3584  TIP3      H1             -4.9170320979        4.7496297882      -23.5879689404  TIP3      3438            0.0000000000
     23782      3584  TIP3      H2             -5.9822498450        4.7580658127      -24.6422119888  TIP3      3438            0.0000000000
     23783      3585  TIP3      OH2            -0.6803203764        5.0155063377      -41.3262327475  TIP3      3439            0.0000000000
     23784      3585  TIP3      H1             -1.3213906528        4.4506604931      -41.8082157238  TIP3      3439            0.0000000000
     23785      3585  TIP3      H2             -0.0903162621        5.2867272817      -42.0562910404  TIP3      3439            0.0000000000
     23786      3586  TIP3      OH2             1.0355364958        3.9671780250      -25.1268643116  TIP3      3440            0.0000000000
     23787      3586  TIP3      H1              0.5523772313        3.1080707536      -25.0361658197  TIP3      3440            0.0000000000
     23788      3586  TIP3      H2              1.6295655949        3.8982660198      -24.3604781196  TIP3      3440            0.0000000000
     23789      3587  TIP3      OH2             3.4933682631        4.4954621772      -42.0322493366  TIP3      3441            0.0000000000
     23790      3587  TIP3      H1              3.0442219313        3.7595586763      -41.5552394703  TIP3      3441            0.0000000000
     23791      3587  TIP3      H2              4.4026271225        4.2759103350      -41.7789164419  TIP3      3441            0.0000000000
     23792      3588  TIP3      OH2           -10.6218454438       -0.0562325579      -24.5130883048  TIP3      3442            0.0000000000
     23793      3588  TIP3      H1            -10.5111818296       -0.9721824192      -24.7841440664  TIP3      3442            0.0000000000
     23794      3588  TIP3      H2            -10.9323054226        0.3843039697      -25.3480734889  TIP3      3442            0.0000000000
     23795      3589  TIP3      OH2            -5.9678509308        0.1519515025      -42.0895696139  TIP3      3443            0.0000000000
     23796      3589  TIP3      H1             -5.2903152208        0.1406145813      -41.3853679278  TIP3      3443            0.0000000000
     23797      3589  TIP3      H2             -5.4045526763        0.0518125382      -42.8871935587  TIP3      3443            0.0000000000
     23798      3590  TIP3      OH2            -3.4641818502       -0.1602601476      -25.2890705098  TIP3      3444            0.0000000000
     23799      3590  TIP3      H1             -3.8882655369        0.3943471217      -25.9773952092  TIP3      3444            0.0000000000
     23800      3590  TIP3      H2             -3.7110728838       -1.0775271196      -25.5567847170  TIP3      3444            0.0000000000
     23801      3591  TIP3      OH2             2.0429749255       -0.0786642641      -27.6617745114  TIP3      3445            0.0000000000
     23802      3591  TIP3      H1              2.5213384205        0.5481221187      -27.0887932493  TIP3      3445            0.0000000000
     23803      3591  TIP3      H2              1.1154078631        0.0734582480      -27.3792886820  TIP3      3445            0.0000000000
     23804      3592  TIP3      OH2            -8.8744573620       -2.9911015871      -25.0126258532  TIP3      3446            0.0000000000
     23805      3592  TIP3      H1             -8.7892065613       -3.8129957617      -24.4876758223  TIP3      3446            0.0000000000
     23806      3592  TIP3      H2             -8.7356549001       -2.3487576143      -24.2963691561  TIP3      3446            0.0000000000
     23807      3593  TIP3      OH2            -4.5286134923       -1.3585529625      -39.9790852199  TIP3      3447            0.0000000000
     23808      3593  TIP3      H1             -5.3640394105       -1.7828753755      -39.7051362330  TIP3      3447            0.0000000000
     23809      3593  TIP3      H2             -4.1045499555       -2.0640439671      -40.5100480241  TIP3      3447            0.0000000000
     23810      3594  TIP3      OH2            -5.6083083174       -3.7945808555      -27.9794301687  TIP3      3448            0.0000000000
     23811      3594  TIP3      H1             -6.2929341908       -3.0920373118      -28.0468132695  TIP3      3448            0.0000000000
     23812      3594  TIP3      H2             -4.9052874838       -3.3965860212      -28.5392394966  TIP3      3448            0.0000000000
     23813      3595  TIP3      OH2            -3.4684727856       -3.2515027706      -41.9068521758  TIP3      3449            0.0000000000
     23814      3595  TIP3      H1             -3.1244587505       -3.1181757922      -42.8077259900  TIP3      3449            0.0000000000
     23815      3595  TIP3      H2             -2.6027886323       -3.2196357296      -41.4202584269  TIP3      3449            0.0000000000
     23816      3596  TIP3      OH2            -0.0133391313       -1.0555258042      -24.1775897889  TIP3      3450            0.0000000000
     23817      3596  TIP3      H1              0.7734702510       -1.5825123039      -24.3791442041  TIP3      3450            0.0000000000
     23818      3596  TIP3      H2             -0.5749384463       -1.6869120163      -23.6912663533  TIP3      3450            0.0000000000
     23819      3597  TIP3      OH2             6.1948846662       -0.4215964258       42.1077856852  TIP3      3451            0.0000000000
     23820      3597  TIP3      H1              6.0622691618       -0.4735978215       41.1402779292  TIP3      3451            0.0000000000
     23821      3597  TIP3      H2              6.4323776294        0.5102771458       42.2412930580  TIP3      3451            0.0000000000
     23822      3598  TIP3      OH2            -4.3285958119       -5.9814158327      -27.0233851050  TIP3      3452            0.0000000000
     23823      3598  TIP3      H1             -4.3863284689       -6.6699940833      -27.7147020260  TIP3      3452            0.0000000000
     23824      3598  TIP3      H2             -4.6898438907       -5.1960922255      -27.4973718242  TIP3      3452            0.0000000000
     23825      3599  TIP3      OH2            -4.2027965929       -7.8379859846      -29.0993035143  TIP3      3453            0.0000000000
     23826      3599  TIP3      H1             -3.5947695473       -7.4574895496      -29.7756134135  TIP3      3453            0.0000000000
     23827      3599  TIP3      H2             -5.0655138548       -7.6784569350      -29.5449279310  TIP3      3453            0.0000000000
     23828      3600  TIP3      OH2            -3.4224453101       -2.1757914008      -29.0695022297  TIP3      3454            0.0000000000
     23829      3600  TIP3      H1             -2.5395670514       -1.9065213363      -29.3618912189  TIP3      3454            0.0000000000
     23830      3600  TIP3      H2             -3.9892715293       -1.5283096015      -29.5517155592  TIP3      3454            0.0000000000
     23831      3601  TIP3      OH2             1.0641779319       -4.5357036467      -24.0533750049  TIP3      3455            0.0000000000
     23832      3601  TIP3      H1              0.9365966181       -5.4504585778      -23.7409801992  TIP3      3455            0.0000000000
     23833      3601  TIP3      H2              1.9288318000       -4.3251660508      -23.6643769488  TIP3      3455            0.0000000000
     23834      3602  TIP3      OH2             2.8705567295       -1.4985706426      -25.3513832774  TIP3      3456            0.0000000000
     23835      3602  TIP3      H1              2.3342824386       -1.4390271845      -26.1535305718  TIP3      3456            0.0000000000
     23836      3602  TIP3      H2              3.7613036263       -1.6878509990      -25.7066024173  TIP3      3456            0.0000000000
     23837      3603  TIP3      OH2            -6.1951647796       -5.3532851787      -24.8020832941  TIP3      3457            0.0000000000
     23838      3603  TIP3      H1             -6.9160425189       -5.8148796935      -25.2700641185  TIP3      3457            0.0000000000
     23839      3603  TIP3      H2             -5.4799037016       -5.3787469754      -25.4571159262  TIP3      3457            0.0000000000
     23840      3604  TIP3      OH2            -3.4005064826      -10.4025965693      -29.3115987795  TIP3      3458            0.0000000000
     23841      3604  TIP3      H1             -3.7413642427       -9.4975842007      -29.1465690814  TIP3      3458            0.0000000000
     23842      3604  TIP3      H2             -4.2357280854      -10.9027268980      -29.3818799592  TIP3      3458            0.0000000000
     23843      3605  TIP3      OH2            -2.6024925495       -6.4146183279      -24.8986520624  TIP3      3459            0.0000000000
     23844      3605  TIP3      H1             -3.1855241990       -6.6768792943      -24.1501349273  TIP3      3459            0.0000000000
     23845      3605  TIP3      H2             -3.2653455476       -6.4098823348      -25.6177741692  TIP3      3459            0.0000000000
     23846      3606  TIP3      OH2             0.0789633139       -6.7590691629      -26.0527649602  TIP3      3460            0.0000000000
     23847      3606  TIP3      H1             -0.8405228754       -6.8052493783      -25.7348956330  TIP3      3460            0.0000000000
     23848      3606  TIP3      H2              0.4723852334       -7.4080238883      -25.4228292573  TIP3      3460            0.0000000000
     23849      3607  TIP3      OH2             1.0083027464       -8.5637195045      -24.3136666163  TIP3      3461            0.0000000000
     23850      3607  TIP3      H1              1.1062321108       -9.5205839429      -24.1380816566  TIP3      3461            0.0000000000
     23851      3607  TIP3      H2              1.1743131805       -8.1444852361      -23.4465981128  TIP3      3461            0.0000000000
     23852      3608  TIP3      OH2            -8.4377262451       -7.0730595843      -25.0639465067  TIP3      3462            0.0000000000
     23853      3608  TIP3      H1             -8.4054931078       -8.0103512891      -25.3112522089  TIP3      3462            0.0000000000
     23854      3608  TIP3      H2             -8.1908220543       -7.0953350400      -24.1106965176  TIP3      3462            0.0000000000
     23855      3609  TIP3      OH2            -3.9669185085      -10.8362006150      -26.4012910492  TIP3      3463            0.0000000000
     23856      3609  TIP3      H1             -3.1154741202      -11.2532801359      -26.2025157585  TIP3      3463            0.0000000000
     23857      3609  TIP3      H2             -3.9460807306      -10.8098003319      -27.3695562487  TIP3      3463            0.0000000000
     23858      3610  TIP3      OH2            -3.5149110123       -9.9762162609      -23.8665727685  TIP3      3464            0.0000000000
     23859      3610  TIP3      H1             -3.8833831095      -10.0977435023      -24.7595703502  TIP3      3464            0.0000000000
     23860      3610  TIP3      H2             -3.7946567140       -9.0743847006      -23.6323476714  TIP3      3464            0.0000000000
     23861      3611  TIP3      OH2            -3.9364186086        7.3625965928      -40.4085151367  TIP3      3465            0.0000000000
     23862      3611  TIP3      H1             -3.1892372641        7.9735552655      -40.2991824166  TIP3      3465            0.0000000000
     23863      3611  TIP3      H2             -3.8835355581        7.1938551195      -41.3626885499  TIP3      3465            0.0000000000
     23864      3612  TIP3      OH2           -10.3923861963        2.0482045374      -41.4055865706  TIP3      3466            0.0000000000
     23865      3612  TIP3      H1             -9.4199372615        2.0601710977      -41.3182225914  TIP3      3466            0.0000000000
     23866      3612  TIP3      H2            -10.4661856064        1.7951177127      -42.3434404131  TIP3      3466            0.0000000000
     23867      3613  TIP3      OH2           -11.2768325649        7.1253966119      -36.2917589030  TIP3      3467            0.0000000000
     23868      3613  TIP3      H1            -11.9738750086        6.7091289712      -36.8446526563  TIP3      3467            0.0000000000
     23869      3613  TIP3      H2            -11.1277600422        6.3958001089      -35.6574524685  TIP3      3467            0.0000000000
     23870      3614  TIP3      OH2           -10.4355369336        5.3052015825      -34.5250093508  TIP3      3468            0.0000000000
     23871      3614  TIP3      H1            -11.1563240318        5.0404027120      -33.9226041278  TIP3      3468            0.0000000000
     23872      3614  TIP3      H2             -9.8473395030        5.7350750498      -33.8562049374  TIP3      3468            0.0000000000
     23873      3615  TIP3      OH2             6.7986802419        5.5247802567      -31.8316043293  TIP3      3469            0.0000000000
     23874      3615  TIP3      H1              7.1254803934        6.1346552854      -31.1534930497  TIP3      3469            0.0000000000
     23875      3615  TIP3      H2              7.0078467979        5.9893789451      -32.6617457365  TIP3      3469            0.0000000000
     23876      3616  TIP3      OH2             6.4169482608        5.6885218009      -28.1088696136  TIP3      3470            0.0000000000
     23877      3616  TIP3      H1              6.4851139999        5.0352130445      -28.8233968432  TIP3      3470            0.0000000000
     23878      3616  TIP3      H2              6.7964693270        5.1885607754      -27.3676298737  TIP3      3470            0.0000000000
     23879      3617  TIP3      OH2             4.8397664682        1.6380572751      -24.0653504639  TIP3      3471            0.0000000000
     23880      3617  TIP3      H1              4.1260262286        1.6531115079      -23.3905065177  TIP3      3471            0.0000000000
     23881      3617  TIP3      H2              5.3815409699        2.3923875725      -23.7550174016  TIP3      3471            0.0000000000
     23882      3618  TIP3      OH2             6.0470837686        0.0788565433      -38.6804540930  TIP3      3472            0.0000000000
     23883      3618  TIP3      H1              6.9570019061        0.4258952450      -38.5060406970  TIP3      3472            0.0000000000
     23884      3618  TIP3      H2              5.9130248853       -0.4743625792      -37.8858420667  TIP3      3472            0.0000000000
     23885      3619  TIP3      OH2             6.6722134408       -2.0163159480      -36.7792306331  TIP3      3473            0.0000000000
     23886      3619  TIP3      H1              5.8892159911       -2.3221852820      -36.2622324932  TIP3      3473            0.0000000000
     23887      3619  TIP3      H2              7.2387642361       -1.7859018815      -36.0214140529  TIP3      3473            0.0000000000
     23888      3620  TIP3      OH2             6.5133697368        0.9348320018      -31.6123043023  TIP3      3474            0.0000000000
     23889      3620  TIP3      H1              7.0804087974        0.2028851546      -31.9382578120  TIP3      3474            0.0000000000
     23890      3620  TIP3      H2              7.0836079977        1.7173796243      -31.7871901596  TIP3      3474            0.0000000000
     23891      3621  TIP3      OH2             5.1472620126        3.5109516866      -29.4927619693  TIP3      3475            0.0000000000
     23892      3621  TIP3      H1              4.5829995645        4.2176683150      -29.1289733587  TIP3      3475            0.0000000000
     23893      3621  TIP3      H2              4.7599604484        3.3404472957      -30.3765480598  TIP3      3475            0.0000000000
     23894      3622  TIP3      OH2             6.7661348787       -2.3820313345      -40.0056255209  TIP3      3476            0.0000000000
     23895      3622  TIP3      H1              6.0280581181       -2.2766368533      -40.6269209294  TIP3      3476            0.0000000000
     23896      3622  TIP3      H2              6.6343377978       -1.6061982355      -39.4299735297  TIP3      3476            0.0000000000
     23897      3623  TIP3      OH2             4.6268603763       -5.1394039790      -41.0671178314  TIP3      3477            0.0000000000
     23898      3623  TIP3      H1              5.2507545284       -4.6834497610      -41.6566314395  TIP3      3477            0.0000000000
     23899      3623  TIP3      H2              4.5220450143       -5.9728099882      -41.5704855138  TIP3      3477            0.0000000000
     23900      3624  TIP3      OH2             4.6083916366       -2.9916656894      -35.4483876484  TIP3      3478            0.0000000000
     23901      3624  TIP3      H1              4.3148821882       -3.8246014781      -35.8432814644  TIP3      3478            0.0000000000
     23902      3624  TIP3      H2              4.2860850345       -3.1183418946      -34.5283121283  TIP3      3478            0.0000000000
     23903      3625  TIP3      OH2           -10.6130633496       -1.3440495040      -31.7036346532  TIP3      3479            0.0000000000
     23904      3625  TIP3      H1            -10.6135818485       -1.6128845907      -32.6544458233  TIP3      3479            0.0000000000
     23905      3625  TIP3      H2             -9.6607788032       -1.4909549102      -31.4640071662  TIP3      3479            0.0000000000
     23906      3626  TIP3      OH2             5.5633593235       -1.4810548835      -26.1967197097  TIP3      3480            0.0000000000
     23907      3626  TIP3      H1              6.2488979105       -2.1669582590      -26.1006448412  TIP3      3480            0.0000000000
     23908      3626  TIP3      H2              6.1118225031       -0.6682860893      -26.2627274663  TIP3      3480            0.0000000000
     23909      3627  TIP3      OH2             6.8322449362       -3.8718080584      -25.6851090839  TIP3      3481            0.0000000000
     23910      3627  TIP3      H1              5.8893329059       -4.0463548081      -25.9178252438  TIP3      3481            0.0000000000
     23911      3627  TIP3      H2              7.1895204595       -4.7924751191      -25.6763907211  TIP3      3481            0.0000000000
     23912      3628  TIP3      OH2             4.4735267333       -7.4037357754      -42.5182949895  TIP3      3482            0.0000000000
     23913      3628  TIP3      H1              4.9299621706       -8.0060524420      -41.8906260416  TIP3      3482            0.0000000000
     23914      3628  TIP3      H2              3.5276116990       -7.4799251219      -42.2959376998  TIP3      3482            0.0000000000
     23915      3629  TIP3      OH2             3.7740258312       -5.5338583991      -37.3458259325  TIP3      3483            0.0000000000
     23916      3629  TIP3      H1              4.0474406026       -6.4672473461      -37.1784351953  TIP3      3483            0.0000000000
     23917      3629  TIP3      H2              4.3448297263       -5.3834610717      -38.1164198957  TIP3      3483            0.0000000000
     23918      3630  TIP3      OH2             5.0365418016       -5.1651176497      -32.0708537635  TIP3      3484            0.0000000000
     23919      3630  TIP3      H1              6.0245659113       -5.1803007669      -32.0664470709  TIP3      3484            0.0000000000
     23920      3630  TIP3      H2              4.9005562883       -5.0424726418      -31.1060390364  TIP3      3484            0.0000000000
     23921      3631  TIP3      OH2             5.0639660363       -4.4902475999      -29.5053893278  TIP3      3485            0.0000000000
     23922      3631  TIP3      H1              4.2357083529       -4.2149264474      -29.0622893770  TIP3      3485            0.0000000000
     23923      3631  TIP3      H2              5.4857161284       -3.6227152799      -29.7184250037  TIP3      3485            0.0000000000
     23924      3632  TIP3      OH2           -10.9123924845       -6.5117491706      -25.8256710592  TIP3      3486            0.0000000000
     23925      3632  TIP3      H1            -10.0119995443       -6.3076902964      -25.4679939360  TIP3      3486            0.0000000000
     23926      3632  TIP3      H2            -11.2299460416       -7.1023427428      -25.1284794308  TIP3      3486            0.0000000000
     23927      3633  TIP3      OH2             7.5451254311      -10.1343128182      -23.8730045454  TIP3      3487            0.0000000000
     23928      3633  TIP3      H1              7.8407395819      -10.8124183151      -24.5120167511  TIP3      3487            0.0000000000
     23929      3633  TIP3      H2              7.1340039156       -9.4724858509      -24.4766098840  TIP3      3487            0.0000000000
     23930      3634  TIP3      OH2             4.5180676875       -8.1363272164      -37.5527207330  TIP3      3488            0.0000000000
     23931      3634  TIP3      H1              4.9297909352       -8.6219905561      -36.8195016274  TIP3      3488            0.0000000000
     23932      3634  TIP3      H2              4.0757727393       -8.8648776674      -38.0225958023  TIP3      3488            0.0000000000
     23933      3635  TIP3      OH2            -9.4249458830       -7.7263006456      -32.0775882505  TIP3      3489            0.0000000000
     23934      3635  TIP3      H1             -9.1213272356       -8.6646607839      -32.0532432868  TIP3      3489            0.0000000000
     23935      3635  TIP3      H2             -8.6050403070       -7.2242794429      -32.2726859428  TIP3      3489            0.0000000000
     23936      3636  TIP3      OH2           -11.2301337678       -4.8550673118      -31.5842613283  TIP3      3490            0.0000000000
     23937      3636  TIP3      H1            -10.7145428172       -5.3554272096      -32.2408627472  TIP3      3490            0.0000000000
     23938      3636  TIP3      H2            -10.7051504283       -4.0400927377      -31.6022134878  TIP3      3490            0.0000000000
     23939      3637  TIP3      OH2             6.0316022089       -8.5957323286      -25.5643545620  TIP3      3491            0.0000000000
     23940      3637  TIP3      H1              5.3197861134       -7.9182121988      -25.5923107172  TIP3      3491            0.0000000000
     23941      3637  TIP3      H2              5.9322860576       -8.9472141519      -26.4714182688  TIP3      3491            0.0000000000
     23942      3638  TIP3      OH2             6.3468419459       -8.4554153684      -40.7667850874  TIP3      3492            0.0000000000
     23943      3638  TIP3      H1              7.1810763822       -8.7210163036      -41.1943867317  TIP3      3492            0.0000000000
     23944      3638  TIP3      H2              6.5327359247       -7.5317072377      -40.5407021720  TIP3      3492            0.0000000000
     23945      3639  TIP3      OH2           -11.1445835831       -8.7656143327      -37.8637277991  TIP3      3493            0.0000000000
     23946      3639  TIP3      H1            -12.0433764518       -8.4469233080      -37.7354312881  TIP3      3493            0.0000000000
     23947      3639  TIP3      H2            -10.9726809356       -8.3821110301      -38.7484318192  TIP3      3493            0.0000000000
     23948      3640  TIP3      OH2             3.7835451152        6.6114764966      -35.4877243320  TIP3      3494            0.0000000000
     23949      3640  TIP3      H1              4.4299848740        6.4795956421      -36.2065051112  TIP3      3494            0.0000000000
     23950      3640  TIP3      H2              4.2299775559        7.2643716996      -34.9246228227  TIP3      3494            0.0000000000
     23951      3641  TIP3      OH2           -11.1688647460       -9.9657672707      -29.8057585685  TIP3      3495            0.0000000000
     23952      3641  TIP3      H1            -11.6801157405      -10.0683838567      -28.9759952898  TIP3      3495            0.0000000000
     23953      3641  TIP3      H2            -11.6627848703       -9.2791916389      -30.2857069662  TIP3      3495            0.0000000000
     23954      3642  TIP3      OH2            -8.7780258414        2.9561951148      -25.4949279651  TIP3      3496            0.0000000000
     23955      3642  TIP3      H1             -9.0311632381        3.9042252083      -25.5988071937  TIP3      3496            0.0000000000
     23956      3642  TIP3      H2             -8.9214325091        2.8741577285      -24.5454779740  TIP3      3496            0.0000000000
     23957      3643  TIP3      OH2            -5.6659101539        4.5140771704      -28.8066610481  TIP3      3497            0.0000000000
     23958      3643  TIP3      H1             -5.9642951009        5.3983249285      -29.1064267146  TIP3      3497            0.0000000000
     23959      3643  TIP3      H2             -4.9062367489        4.4572760076      -29.4081344923  TIP3      3497            0.0000000000
     23960      3644  TIP3      OH2            -1.0747906174        6.1298890599      -25.4331963638  TIP3      3498            0.0000000000
     23961      3644  TIP3      H1             -1.6470395578        5.5776206099      -24.8825350284  TIP3      3498            0.0000000000
     23962      3644  TIP3      H2             -1.3531572093        5.8491416239      -26.3406197873  TIP3      3498            0.0000000000
     23963      3645  TIP3      OH2             0.5641509851        7.6955513568      -26.8838399716  TIP3      3499            0.0000000000
     23964      3645  TIP3      H1              1.2676953034        7.1138109454      -27.1764872846  TIP3      3499            0.0000000000
     23965      3645  TIP3      H2              0.0936229645        7.1303206196      -26.2246139655  TIP3      3499            0.0000000000
     23966      3646  TIP3      OH2             5.6121725742      -10.6194859913      -27.5658201790  TIP3      3500            0.0000000000
     23967      3646  TIP3      H1              4.8051008084      -10.7143068076      -28.0907033555  TIP3      3500            0.0000000000
     23968      3646  TIP3      H2              6.0348866345      -11.4808808156      -27.7562651091  TIP3      3500            0.0000000000
     23969      3647  TIP3      OH2            -8.3238891472        7.7570144480      -29.0625635900  TIP3      3501            0.0000000000
     23970      3647  TIP3      H1             -8.9816707007        8.4118941423      -29.3509381854  TIP3      3501            0.0000000000
     23971      3647  TIP3      H2             -8.7660030203        7.4611682368      -28.2379528769  TIP3      3501            0.0000000000
     23972      3648  TIP3      OH2            -6.0968910028        6.7013251246      -30.2137965713  TIP3      3502            0.0000000000
     23973      3648  TIP3      H1             -6.8966413510        7.0152061057      -29.7120899160  TIP3      3502            0.0000000000
     23974      3648  TIP3      H2             -6.0126942362        7.4240583248      -30.8576227651  TIP3      3502            0.0000000000
     23975      3649  TIP3      OH2            -1.0095342815        7.0480117842      -31.2466565167  TIP3      3503            0.0000000000
     23976      3649  TIP3      H1             -0.9264777609        7.8524578181      -31.7958506527  TIP3      3503            0.0000000000
     23977      3649  TIP3      H2             -1.1804238995        7.4571782290      -30.3643392946  TIP3      3503            0.0000000000
     23978      3650  TIP3      OH2             0.5389863836        5.4670490652      -29.3019029503  TIP3      3504            0.0000000000
     23979      3650  TIP3      H1             -0.4191881979        5.6003618024      -29.0971464260  TIP3      3504            0.0000000000
     23980      3650  TIP3      H2              0.6893072823        6.2377576300      -29.8804696738  TIP3      3504            0.0000000000
     23981      3651  TIP3      OH2             3.3443376126        7.0582749830      -29.6077291771  TIP3      3505            0.0000000000
     23982      3651  TIP3      H1              3.3923652304        7.9206703272      -30.0449919155  TIP3      3505            0.0000000000
     23983      3651  TIP3      H2              3.5866098485        6.4720861488      -30.3562785219  TIP3      3505            0.0000000000
     23984      3652  TIP3      OH2            -8.9660193113        5.9457014689      -32.3630169632  TIP3      3506            0.0000000000
     23985      3652  TIP3      H1             -9.0840849074        5.4674666385      -31.5159470371  TIP3      3506            0.0000000000
     23986      3652  TIP3      H2             -8.0633468306        5.6401811599      -32.6115738344  TIP3      3506            0.0000000000
     23987      3653  TIP3      OH2            -6.6714209958        5.0064959522      -33.4445133029  TIP3      3507            0.0000000000
     23988      3653  TIP3      H1             -6.7828667937        4.1913918260      -32.9106477955  TIP3      3507            0.0000000000
     23989      3653  TIP3      H2             -5.6957265140        5.0657382428      -33.5052887171  TIP3      3507            0.0000000000
     23990      3654  TIP3      OH2            -3.9896048144        4.9474413848      -33.3317218664  TIP3      3508            0.0000000000
     23991      3654  TIP3      H1             -4.1340760485        3.9858034361      -33.2705682286  TIP3      3508            0.0000000000
     23992      3654  TIP3      H2             -3.6608742713        5.0649515778      -32.4086272977  TIP3      3508            0.0000000000
     23993      3655  TIP3      OH2            -1.3154551318       -8.9269638474      -32.7438014318  TIP3      3509            0.0000000000
     23994      3655  TIP3      H1             -2.0404212105       -9.5781188419      -32.6273864123  TIP3      3509            0.0000000000
     23995      3655  TIP3      H2             -0.8154309275       -9.3496520114      -33.4520111590  TIP3      3509            0.0000000000
     23996      3656  TIP3      OH2             4.4112888332      -10.7091217429      -33.3632219376  TIP3      3510            0.0000000000
     23997      3656  TIP3      H1              5.1127973689      -10.1391444435      -33.7399581663  TIP3      3510            0.0000000000
     23998      3656  TIP3      H2              3.6246817261      -10.2778173852      -33.7489718615  TIP3      3510            0.0000000000
     23999      3657  TIP3      OH2             6.0253471550       -9.7672844147      -35.5405887845  TIP3      3511            0.0000000000
     24000      3657  TIP3      H1              6.7510111030      -10.3279690278      -35.8813733312  TIP3      3511            0.0000000000
     24001      3657  TIP3      H2              6.5328667956       -8.9775437237      -35.2416226645  TIP3      3511            0.0000000000
     24002      3658  TIP3      OH2            -8.7123525549      -10.6329279930      -35.3146943192  TIP3      3512            0.0000000000
     24003      3658  TIP3      H1             -9.5469378887      -10.8244259132      -35.7945478716  TIP3      3512            0.0000000000
     24004      3658  TIP3      H2             -8.2257510586      -11.4764599746      -35.4716185669  TIP3      3512            0.0000000000
     24005      3659  TIP3      OH2           -10.1049378003      -10.5790571456      -39.7235367564  TIP3      3513            0.0000000000
     24006      3659  TIP3      H1             -9.4457485870       -9.9406181567      -40.0621051417  TIP3      3513            0.0000000000
     24007      3659  TIP3      H2            -10.4541577658      -10.1547387398      -38.9173029203  TIP3      3513            0.0000000000
     24008      3660  TIP3      OH2            -4.4059180654      -10.7630457221      -35.7195551012  TIP3      3514            0.0000000000
     24009      3660  TIP3      H1             -3.5459393399      -10.8452472060      -36.1624055248  TIP3      3514            0.0000000000
     24010      3660  TIP3      H2             -4.1392319988      -10.4463359093      -34.8409128904  TIP3      3514            0.0000000000
     24011      3661  TIP3      OH2             1.2421818413      -10.2262330117      -34.6846933240  TIP3      3515            0.0000000000
     24012      3661  TIP3      H1              1.1273944348      -10.5314852256      -35.5962861409  TIP3      3515            0.0000000000
     24013      3661  TIP3      H2              0.9914839412      -11.0334025940      -34.1870962257  TIP3      3515            0.0000000000
     24014      3662  TIP3      OH2             2.8773204611      -10.3980108153      -38.7770061039  TIP3      3516            0.0000000000
     24015      3662  TIP3      H1              2.1980822796      -10.2890646177      -39.4630128538  TIP3      3516            0.0000000000
     24016      3662  TIP3      H2              2.4886722182      -11.1338018925      -38.2487903505  TIP3      3516            0.0000000000
     24017      3663  TIP3      OH2            -9.8108735924        5.5852537383      -39.0333442979  TIP3      3517            0.0000000000
     24018      3663  TIP3      H1            -10.7263915314        5.7249510639      -39.3527604399  TIP3      3517            0.0000000000
     24019      3663  TIP3      H2             -9.4921468402        6.5029891577      -39.1792396972  TIP3      3517            0.0000000000
     24020      3664  TIP3      OH2            -8.2616836501       -9.3472232326      -41.2054145102  TIP3      3518            0.0000000000
     24021      3664  TIP3      H1             -7.3781372429       -9.7389002880      -41.3104576674  TIP3      3518            0.0000000000
     24022      3664  TIP3      H2             -8.0345409727       -8.4130426519      -41.0867196131  TIP3      3518            0.0000000000
     24023      3665  TIP3      OH2            -2.9593269258       -8.1319179447      -38.6814574041  TIP3      3519            0.0000000000
     24024      3665  TIP3      H1             -2.4505417686       -8.6614726414      -38.0443290643  TIP3      3519            0.0000000000
     24025      3665  TIP3      H2             -2.8326032730       -7.2364873869      -38.3045087958  TIP3      3519            0.0000000000
     24026      3666  TIP3      OH2            -0.8619218714        7.6234908021      -40.7635554176  TIP3      3520            0.0000000000
     24027      3666  TIP3      H1             -0.0241027310        7.8763002800      -41.1860858795  TIP3      3520            0.0000000000
     24028      3666  TIP3      H2             -0.7669110581        6.6492956984      -40.8453816689  TIP3      3520            0.0000000000
     24029      3667  TIP3      OH2             5.5100943057        5.9224186636      -37.4701194880  TIP3      3521            0.0000000000
     24030      3667  TIP3      H1              5.3432496253        5.2337608921      -38.1598953511  TIP3      3521            0.0000000000
     24031      3667  TIP3      H2              5.4750282996        6.7309261333      -38.0314078505  TIP3      3521            0.0000000000
     24032      3668  TIP3      OH2            -8.9270457867       -9.8105155271      -26.5345687122  TIP3      3522            0.0000000000
     24033      3668  TIP3      H1             -9.3885047956      -10.6339874422      -26.3110123346  TIP3      3522            0.0000000000
     24034      3668  TIP3      H2             -8.1440461797       -9.9079014744      -25.9439443365  TIP3      3522            0.0000000000
     24035      3669  TIP3      OH2            -7.0520745039      -10.2552962573      -24.6303075763  TIP3      3523            0.0000000000
     24036      3669  TIP3      H1             -6.1721549599      -10.6416568052      -24.8074703008  TIP3      3523            0.0000000000
     24037      3669  TIP3      H2             -7.3576967234      -10.8151990942      -23.8962473463  TIP3      3523            0.0000000000
     24038      3670  TIP3      OH2            -7.9158447303        6.6533642744      -41.7541988015  TIP3      3524            0.0000000000
     24039      3670  TIP3      H1             -8.7568964231        7.0739390036      -41.5202578817  TIP3      3524            0.0000000000
     24040      3670  TIP3      H2             -7.9418397605        5.8008876991      -41.3041214862  TIP3      3524            0.0000000000
     24041      3671  TIP3      OH2             1.6382189757      -11.1596737749      -24.0951562339  TIP3      3525            0.0000000000
     24042      3671  TIP3      H1              1.9399085723      -11.4431081027      -23.2135657833  TIP3      3525            0.0000000000
     24043      3671  TIP3      H2              2.4944160271      -11.1957340284      -24.5920464136  TIP3      3525            0.0000000000
     24044      3672  TIP3      OH2             4.7859387669        4.8700326192      -25.5766225677  TIP3      3526            0.0000000000
     24045      3672  TIP3      H1              4.0918596049        4.7345382563      -26.2655006873  TIP3      3526            0.0000000000
     24046      3672  TIP3      H2              4.6951858098        5.8532107082      -25.5310949082  TIP3      3526            0.0000000000
     24047      3673  TIP3      OH2            19.7150191013       -1.0587885548      -35.7046848764  TIP3      3527            0.0000000000
     24048      3673  TIP3      H1             19.4072202218       -0.1257629168      -35.7391080194  TIP3      3527            0.0000000000
     24049      3673  TIP3      H2             19.0026875551       -1.5341633218      -36.1575910532  TIP3      3527            0.0000000000
     24050      3674  TIP3      OH2            18.3463737942       -2.4825615772      -32.4635260280  TIP3      3528            0.0000000000
     24051      3674  TIP3      H1             18.1067083208       -2.6607659451      -31.5300860453  TIP3      3528            0.0000000000
     24052      3674  TIP3      H2             17.5056083954       -2.6106314701      -32.9299840437  TIP3      3528            0.0000000000
     24053      3675  TIP3      OH2            10.4720778393       -2.3274690426      -30.7324346984  TIP3      3529            0.0000000000
     24054      3675  TIP3      H1             10.5252219615       -3.0340679825      -30.0683765518  TIP3      3529            0.0000000000
     24055      3675  TIP3      H2             11.4084124003       -2.1084339379      -30.8866224892  TIP3      3529            0.0000000000
     24056      3676  TIP3      OH2            21.4694478150        0.7985816333      -33.7688100714  TIP3      3530            0.0000000000
     24057      3676  TIP3      H1             21.2984149237        0.1995233810      -33.0160884360  TIP3      3530            0.0000000000
     24058      3676  TIP3      H2             21.7409990707        1.6205756132      -33.3110815963  TIP3      3530            0.0000000000
     24059      3677  TIP3      OH2            11.7882706628        2.7142877476      -33.6286443326  TIP3      3531            0.0000000000
     24060      3677  TIP3      H1             11.3828230232        1.8284901986      -33.6425329939  TIP3      3531            0.0000000000
     24061      3677  TIP3      H2             12.6521894548        2.4623428432      -33.2488620068  TIP3      3531            0.0000000000
     24062      3678  TIP3      OH2             8.5250673433       -4.3153194382      -36.8729819578  TIP3      3532            0.0000000000
     24063      3678  TIP3      H1              7.8626015786       -3.7002241699      -36.5098296610  TIP3      3532            0.0000000000
     24064      3678  TIP3      H2              8.2877286027       -4.2855934220      -37.8053752643  TIP3      3532            0.0000000000
     24065      3679  TIP3      OH2             8.2410166732       -2.2929998610      -34.1651115119  TIP3      3533            0.0000000000
     24066      3679  TIP3      H1              8.5448345371       -3.2121606362      -33.9719838071  TIP3      3533            0.0000000000
     24067      3679  TIP3      H2              9.0731715482       -1.8379462617      -34.3845100653  TIP3      3533            0.0000000000
     24068      3680  TIP3      OH2            19.1583176715        6.2644264075      -33.8496879686  TIP3      3534            0.0000000000
     24069      3680  TIP3      H1             19.7441476767        5.6772907447      -34.3763381443  TIP3      3534            0.0000000000
     24070      3680  TIP3      H2             18.7696850538        5.6064830868      -33.2652275743  TIP3      3534            0.0000000000
     24071      3681  TIP3      OH2            16.3601049128        0.4589198837      -31.3043773520  TIP3      3535            0.0000000000
     24072      3681  TIP3      H1             16.6558075861        0.3587675488      -32.2156306380  TIP3      3535            0.0000000000
     24073      3681  TIP3      H2             17.2194572819        0.5746079645      -30.8388559098  TIP3      3535            0.0000000000
     24074      3682  TIP3      OH2            25.5267674817       -7.9088492805      -31.5197499588  TIP3      3536            0.0000000000
     24075      3682  TIP3      H1             25.4792412872       -7.3279231496      -30.7300430052  TIP3      3536            0.0000000000
     24076      3682  TIP3      H2             26.2208249755       -7.4784447911      -32.0426646207  TIP3      3536            0.0000000000
     24077      3683  TIP3      OH2            20.3683446512       -4.8709112535      -31.1087129585  TIP3      3537            0.0000000000
     24078      3683  TIP3      H1             20.6181566565       -5.7451459232      -30.7698558596  TIP3      3537            0.0000000000
     24079      3683  TIP3      H2             20.0241752943       -5.1134245967      -31.9931419948  TIP3      3537            0.0000000000
     24080      3684  TIP3      OH2            13.0355925338       -7.3440167420      -34.4173284924  TIP3      3538            0.0000000000
     24081      3684  TIP3      H1             13.1506470554       -6.5273195818      -34.9465261290  TIP3      3538            0.0000000000
     24082      3684  TIP3      H2             12.6068467207       -7.9042012143      -35.0937299343  TIP3      3538            0.0000000000
     24083      3685  TIP3      OH2            20.2794141608       -6.8873298342      -35.8428720550  TIP3      3539            0.0000000000
     24084      3685  TIP3      H1             20.8345614863       -7.3255762945      -35.1537787907  TIP3      3539            0.0000000000
     24085      3685  TIP3      H2             20.8839745769       -6.1730892035      -36.1042498131  TIP3      3539            0.0000000000
     24086      3686  TIP3      OH2             9.6291829010       -4.5925787328      -33.3955451115  TIP3      3540            0.0000000000
     24087      3686  TIP3      H1             10.2554095066       -5.0003799461      -32.7590068584  TIP3      3540            0.0000000000
     24088      3686  TIP3      H2              9.9016604948       -5.0113238291      -34.2395904054  TIP3      3540            0.0000000000
     24089      3687  TIP3      OH2            13.9647344182       -3.0771842701      -34.2409069653  TIP3      3541            0.0000000000
     24090      3687  TIP3      H1             14.8425235552       -3.4509881423      -34.0179546116  TIP3      3541            0.0000000000
     24091      3687  TIP3      H2             13.6214588613       -3.7821719800      -34.8331209451  TIP3      3541            0.0000000000
     24092      3688  TIP3      OH2            25.3258555758       -6.6788413499      -28.9397940928  TIP3      3542            0.0000000000
     24093      3688  TIP3      H1             24.8887597097       -5.9235378727      -29.3925162749  TIP3      3542            0.0000000000
     24094      3688  TIP3      H2             25.7585888411       -6.2216940619      -28.2055580846  TIP3      3542            0.0000000000
     24095      3689  TIP3      OH2            12.0967375079       -8.0754454825      -30.2597840807  TIP3      3543            0.0000000000
     24096      3689  TIP3      H1             11.5935181490       -7.5236509927      -30.8938968241  TIP3      3543            0.0000000000
     24097      3689  TIP3      H2             11.5109693898       -8.0501606996      -29.4778046471  TIP3      3543            0.0000000000
     24098      3690  TIP3      OH2            18.6806937087        1.2957712010      -36.7757293271  TIP3      3544            0.0000000000
     24099      3690  TIP3      H1             18.5238021597        1.2669487401      -37.7353457914  TIP3      3544            0.0000000000
     24100      3690  TIP3      H2             18.1456691714        2.0863767658      -36.5473820208  TIP3      3544            0.0000000000
     24101      3691  TIP3      OH2            13.9870329055       -0.3777318481      -30.2949912466  TIP3      3545            0.0000000000
     24102      3691  TIP3      H1             13.3710392696        0.2972635357      -29.9247995280  TIP3      3545            0.0000000000
     24103      3691  TIP3      H2             14.7099739978        0.1616431834      -30.6745641077  TIP3      3545            0.0000000000
     24104      3692  TIP3      OH2            22.1435877268       -7.4442598652      -33.9685501731  TIP3      3546            0.0000000000
     24105      3692  TIP3      H1             21.6301105794       -7.6726584720      -33.1685589530  TIP3      3546            0.0000000000
     24106      3692  TIP3      H2             22.9454786592       -7.0520336280      -33.5905321621  TIP3      3546            0.0000000000
     24107      3693  TIP3      OH2            11.5446037685       -6.2332344847      -32.2121041771  TIP3      3547            0.0000000000
     24108      3693  TIP3      H1             12.1302374204       -5.5665843532      -31.7694334315  TIP3      3547            0.0000000000
     24109      3693  TIP3      H2             12.0743071337       -6.4753352434      -33.0012036716  TIP3      3547            0.0000000000
     24110      3694  TIP3      OH2            12.7946452276        1.7361882291      -29.2050869137  TIP3      3548            0.0000000000
     24111      3694  TIP3      H1             12.5686085409        2.6104032189      -29.5637006768  TIP3      3548            0.0000000000
     24112      3694  TIP3      H2             11.9796952359        1.5435224052      -28.6682506677  TIP3      3548            0.0000000000
     24113      3695  TIP3      OH2             8.5786708822        0.9871499903      -38.4355345062  TIP3      3549            0.0000000000
     24114      3695  TIP3      H1              8.6571401348        1.4886496060      -39.2805106587  TIP3      3549            0.0000000000
     24115      3695  TIP3      H2              8.6502807987        1.6963578503      -37.7651442498  TIP3      3549            0.0000000000
     24116      3696  TIP3      OH2            22.3279642077        3.0143973014      -32.3388096225  TIP3      3550            0.0000000000
     24117      3696  TIP3      H1             21.5100140069        3.1781537759      -31.8180125786  TIP3      3550            0.0000000000
     24118      3696  TIP3      H2             22.6430893797        3.9319210383      -32.4524705102  TIP3      3550            0.0000000000
     24119      3697  TIP3      OH2            22.8770614328       -8.7945037715      -30.8673339820  TIP3      3551            0.0000000000
     24120      3697  TIP3      H1             22.1825135101       -8.6889731269      -31.5404128470  TIP3      3551            0.0000000000
     24121      3697  TIP3      H2             23.6858565323       -8.5208079697      -31.3470209123  TIP3      3551            0.0000000000
     24122      3698  TIP3      OH2            15.2679066185      -10.9461164865      -32.6700514425  TIP3      3552            0.0000000000
     24123      3698  TIP3      H1             15.0935542235      -11.8866942634      -32.8021095628  TIP3      3552            0.0000000000
     24124      3698  TIP3      H2             14.3771635262      -10.5974414285      -32.4151510052  TIP3      3552            0.0000000000
     24125      3699  TIP3      OH2            20.6720354350        4.7180615693      -35.5218361478  TIP3      3553            0.0000000000
     24126      3699  TIP3      H1             20.9596481396        3.8147585881      -35.7766986189  TIP3      3553            0.0000000000
     24127      3699  TIP3      H2             21.5226065235        5.2153185724      -35.5911972686  TIP3      3553            0.0000000000
     24128      3700  TIP3      OH2            21.7385386783        2.4333952327      -36.6207780761  TIP3      3554            0.0000000000
     24129      3700  TIP3      H1             21.6114590588        1.8668300046      -37.4024635130  TIP3      3554            0.0000000000
     24130      3700  TIP3      H2             21.5827854839        1.8051374251      -35.8924005073  TIP3      3554            0.0000000000
     24131      3701  TIP3      OH2            23.5536232724        1.3136103165      -27.9129055279  TIP3      3555            0.0000000000
     24132      3701  TIP3      H1             23.7966387621        0.6808596167      -28.6227598227  TIP3      3555            0.0000000000
     24133      3701  TIP3      H2             23.6418204416        2.1402865187      -28.4258093634  TIP3      3555            0.0000000000
     24134      3702  TIP3      OH2            17.9359732142       -1.9441715695      -38.3111036531  TIP3      3556            0.0000000000
     24135      3702  TIP3      H1             17.2541730725       -1.2531658686      -38.4350027703  TIP3      3556            0.0000000000
     24136      3702  TIP3      H2             18.7561045526       -1.4568234967      -38.5254304653  TIP3      3556            0.0000000000
     24137      3703  TIP3      OH2            17.9680088736       -2.9610889951      -40.9501950074  TIP3      3557            0.0000000000
     24138      3703  TIP3      H1             18.5082272355       -2.6753658839      -40.1822385479  TIP3      3557            0.0000000000
     24139      3703  TIP3      H2             18.4628575755       -3.7235489661      -41.2665769497  TIP3      3557            0.0000000000
     24140      3704  TIP3      OH2            25.0802724431       -2.3099639546      -30.1228257437  TIP3      3558            0.0000000000
     24141      3704  TIP3      H1             24.5560176403       -1.4938729220      -30.2726385014  TIP3      3558            0.0000000000
     24142      3704  TIP3      H2             25.8017697016       -2.1885996992      -30.7857927617  TIP3      3558            0.0000000000
     24143      3705  TIP3      OH2            21.9445715362       -1.4494830234      -37.0676690547  TIP3      3559            0.0000000000
     24144      3705  TIP3      H1             21.1594783927       -1.3079891013      -36.4757773176  TIP3      3559            0.0000000000
     24145      3705  TIP3      H2             22.4683984875       -2.0746124237      -36.5157342680  TIP3      3559            0.0000000000
     24146      3706  TIP3      OH2            21.5145487700       -3.5823442279      -28.2259207453  TIP3      3560            0.0000000000
     24147      3706  TIP3      H1             21.3001973114       -2.7492477740      -27.7796660283  TIP3      3560            0.0000000000
     24148      3706  TIP3      H2             21.2071021174       -3.3777602573      -29.1233083291  TIP3      3560            0.0000000000
     24149      3707  TIP3      OH2            12.5923330110       -1.2899724192      -35.6323946698  TIP3      3561            0.0000000000
     24150      3707  TIP3      H1             12.7003205933       -1.5029092605      -36.5773961037  TIP3      3561            0.0000000000
     24151      3707  TIP3      H2             13.2049034886       -1.9257160609      -35.2075794749  TIP3      3561            0.0000000000
     24152      3708  TIP3      OH2            14.4604861619        2.0216942548      -32.6861768483  TIP3      3562            0.0000000000
     24153      3708  TIP3      H1             14.7373352697        1.9036211992      -33.6087068174  TIP3      3562            0.0000000000
     24154      3708  TIP3      H2             15.1830553889        1.6289751700      -32.1598071595  TIP3      3562            0.0000000000
     24155      3709  TIP3      OH2            13.0523499198       -2.3157736322      -31.7185713545  TIP3      3563            0.0000000000
     24156      3709  TIP3      H1             13.4509566878       -2.4292275970      -32.6161962972  TIP3      3563            0.0000000000
     24157      3709  TIP3      H2             13.6767883315       -1.6861684874      -31.2710530416  TIP3      3563            0.0000000000
     24158      3710  TIP3      OH2            20.0610859258        3.2754353991      -30.9259557456  TIP3      3564            0.0000000000
     24159      3710  TIP3      H1             19.7423027404        3.9831864204      -30.3320760026  TIP3      3564            0.0000000000
     24160      3710  TIP3      H2             19.7089947167        2.4685459740      -30.5016750840  TIP3      3564            0.0000000000
     24161      3711  TIP3      OH2            14.5182801308        2.1739932823      -27.1563795927  TIP3      3565            0.0000000000
     24162      3711  TIP3      H1             13.7937636485        2.7032923202      -26.7414769771  TIP3      3565            0.0000000000
     24163      3711  TIP3      H2             14.0920244931        1.9630025905      -28.0196664362  TIP3      3565            0.0000000000
     24164      3712  TIP3      OH2            20.3982081465       -2.1786368314      -39.3130941434  TIP3      3566            0.0000000000
     24165      3712  TIP3      H1             21.0441711052       -1.8560623785      -38.6499222921  TIP3      3566            0.0000000000
     24166      3712  TIP3      H2             20.7887167352       -1.8097878272      -40.1411497144  TIP3      3566            0.0000000000
     24167      3713  TIP3      OH2            11.4510180868       -2.1513549278      -27.7692566985  TIP3      3567            0.0000000000
     24168      3713  TIP3      H1             11.4583191479       -1.2061925761      -27.5954412933  TIP3      3567            0.0000000000
     24169      3713  TIP3      H2             10.6066648968       -2.4006817652      -27.3466482773  TIP3      3567            0.0000000000
     24170      3714  TIP3      OH2            17.2796108537        3.6433023166      -36.2240831958  TIP3      3568            0.0000000000
     24171      3714  TIP3      H1             17.9987107126        4.2650266817      -36.0532536692  TIP3      3568            0.0000000000
     24172      3714  TIP3      H2             16.6606219309        4.1618556522      -36.7651219422  TIP3      3568            0.0000000000
     24173      3715  TIP3      OH2            12.6716537089        3.7074900579      -26.0981765424  TIP3      3569            0.0000000000
     24174      3715  TIP3      H1             12.4987503231        4.2048103091      -26.9211665558  TIP3      3569            0.0000000000
     24175      3715  TIP3      H2             11.7606920069        3.3879934774      -25.9010334155  TIP3      3569            0.0000000000
     24176      3716  TIP3      OH2            24.3565018317      -10.8767380376      -39.2972367800  TIP3      3570            0.0000000000
     24177      3716  TIP3      H1             23.3829277560      -10.8540111420      -39.4508365946  TIP3      3570            0.0000000000
     24178      3716  TIP3      H2             24.6101596992      -10.0692323527      -39.7839153948  TIP3      3570            0.0000000000
     24179      3717  TIP3      OH2            12.1531388799       -2.3911913518      -38.2950016443  TIP3      3571            0.0000000000
     24180      3717  TIP3      H1             11.6730251530       -1.6032878350      -38.6435115134  TIP3      3571            0.0000000000
     24181      3717  TIP3      H2             11.5027552957       -3.1017854419      -38.3484454551  TIP3      3571            0.0000000000
     24182      3718  TIP3      OH2            25.0767948279        2.9205239588      -41.5860783008  TIP3      3572            0.0000000000
     24183      3718  TIP3      H1             25.4657707143        3.7628778136      -41.8848350493  TIP3      3572            0.0000000000
     24184      3718  TIP3      H2             25.8664117404        2.4371833321      -41.2540517083  TIP3      3572            0.0000000000
     24185      3719  TIP3      OH2             8.2505321196        0.5494766959      -28.8539113597  TIP3      3573            0.0000000000
     24186      3719  TIP3      H1              7.8697707779        0.7200503150      -29.7261936468  TIP3      3573            0.0000000000
     24187      3719  TIP3      H2              8.5934700397       -0.3513683752      -29.0014243572  TIP3      3573            0.0000000000
     24188      3720  TIP3      OH2             8.0988356235        3.1319851974      -32.1033795166  TIP3      3574            0.0000000000
     24189      3720  TIP3      H1              8.6504040281        3.4693279292      -31.3709388594  TIP3      3574            0.0000000000
     24190      3720  TIP3      H2              7.4069829611        3.8199928431      -32.0949932466  TIP3      3574            0.0000000000
     24191      3721  TIP3      OH2            26.2578022946        4.0095829967      -26.1906564345  TIP3      3575            0.0000000000
     24192      3721  TIP3      H1             26.1155567873        3.0676779194      -26.4550321619  TIP3      3575            0.0000000000
     24193      3721  TIP3      H2             25.3574344076        4.2547850835      -25.8740798639  TIP3      3575            0.0000000000
     24194      3722  TIP3      OH2            16.9912834401        3.2867529571      -27.3411138361  TIP3      3576            0.0000000000
     24195      3722  TIP3      H1             17.1025852674        3.6951936048      -26.4697000788  TIP3      3576            0.0000000000
     24196      3722  TIP3      H2             16.1041562610        2.8674248761      -27.2914286864  TIP3      3576            0.0000000000
     24197      3723  TIP3      OH2            17.5622081254        7.0392263045      -38.1330862883  TIP3      3577            0.0000000000
     24198      3723  TIP3      H1             17.5991931961        7.4000154774      -39.0476472600  TIP3      3577            0.0000000000
     24199      3723  TIP3      H2             17.5634311184        7.8704134217      -37.6116868307  TIP3      3577            0.0000000000
     24200      3724  TIP3      OH2            11.3202803651        5.6812790531      -35.9914924870  TIP3      3578            0.0000000000
     24201      3724  TIP3      H1             11.5487221950        5.4390106273      -35.0658941027  TIP3      3578            0.0000000000
     24202      3724  TIP3      H2             10.4412909418        5.2608421283      -36.1354589208  TIP3      3578            0.0000000000
     24203      3725  TIP3      OH2            20.6825371024        6.5513609790      -40.7830660552  TIP3      3579            0.0000000000
     24204      3725  TIP3      H1             21.1457205432        5.7312837466      -41.0380343029  TIP3      3579            0.0000000000
     24205      3725  TIP3      H2             20.6231609028        6.4270820424      -39.8086647307  TIP3      3579            0.0000000000
     24206      3726  TIP3      OH2            20.2160718826        6.3153684260      -38.1176504357  TIP3      3580            0.0000000000
     24207      3726  TIP3      H1             19.2350858697        6.4065546157      -38.1052134411  TIP3      3580            0.0000000000
     24208      3726  TIP3      H2             20.3254312616        5.5379473795      -37.5513275299  TIP3      3580            0.0000000000
     24209      3727  TIP3      OH2            22.5233620811       -5.3254397855      -26.0320411804  TIP3      3581            0.0000000000
     24210      3727  TIP3      H1             22.2585446590       -4.8387437779      -26.8283219218  TIP3      3581            0.0000000000
     24211      3727  TIP3      H2             22.6415186590       -6.2312021647      -26.3594099607  TIP3      3581            0.0000000000
     24212      3728  TIP3      OH2            10.6079417211        1.5684969441      -27.8018278853  TIP3      3582            0.0000000000
     24213      3728  TIP3      H1             10.6770192024        1.2078540433      -26.8808048405  TIP3      3582            0.0000000000
     24214      3728  TIP3      H2              9.7014758440        1.2969604389      -28.0534430523  TIP3      3582            0.0000000000
     24215      3729  TIP3      OH2            13.0139408505       -9.8291199364      -31.9926033538  TIP3      3583            0.0000000000
     24216      3729  TIP3      H1             12.2296622169       -9.5666209680      -32.4957180459  TIP3      3583            0.0000000000
     24217      3729  TIP3      H2             12.9034895994       -9.2495976910      -31.2005763813  TIP3      3583            0.0000000000
     24218      3730  TIP3      OH2            17.9992565126      -10.3027940253      -28.6897854867  TIP3      3584            0.0000000000
     24219      3730  TIP3      H1             18.3207628172      -10.6517367996      -27.8369986201  TIP3      3584            0.0000000000
     24220      3730  TIP3      H2             17.0494225209      -10.1455184811      -28.5122905241  TIP3      3584            0.0000000000
     24221      3731  TIP3      OH2            20.8756995083       -6.2537068844      -28.2269236286  TIP3      3585            0.0000000000
     24222      3731  TIP3      H1             20.3903102666       -6.3146107940      -27.3787376291  TIP3      3585            0.0000000000
     24223      3731  TIP3      H2             20.9184161256       -5.2832250538      -28.3692696620  TIP3      3585            0.0000000000
     24224      3732  TIP3      OH2            21.5578404717       -1.1506111312      -41.4272353098  TIP3      3586            0.0000000000
     24225      3732  TIP3      H1             21.7914602716       -1.0552849328      -42.3627122321  TIP3      3586            0.0000000000
     24226      3732  TIP3      H2             21.8407781761       -0.2773879234      -41.0907837124  TIP3      3586            0.0000000000
     24227      3733  TIP3      OH2            17.3807949442       -7.0715629654      -41.2657453501  TIP3      3587            0.0000000000
     24228      3733  TIP3      H1             16.9267122285       -6.9895386023      -40.4095906957  TIP3      3587            0.0000000000
     24229      3733  TIP3      H2             16.7411256324       -7.6024282215      -41.7546346750  TIP3      3587            0.0000000000
     24230      3734  TIP3      OH2            13.1190127147       -4.6989134710      -30.6995428090  TIP3      3588            0.0000000000
     24231      3734  TIP3      H1             12.4018985367       -4.7246696232      -30.0286486473  TIP3      3588            0.0000000000
     24232      3734  TIP3      H2             13.0471797066       -3.7663340485      -31.0068777697  TIP3      3588            0.0000000000
     24233      3735  TIP3      OH2            13.0436856664       -5.2729586805      -36.1674911197  TIP3      3589            0.0000000000
     24234      3735  TIP3      H1             12.0622244139       -5.3830012811      -36.1423765677  TIP3      3589            0.0000000000
     24235      3735  TIP3      H2             13.2763061723       -5.4661231268      -37.0992456560  TIP3      3589            0.0000000000
     24236      3736  TIP3      OH2            18.8574197220       -3.9683825889      -36.8454639956  TIP3      3590            0.0000000000
     24237      3736  TIP3      H1             18.4538657291       -3.2398367294      -37.3727697884  TIP3      3590            0.0000000000
     24238      3736  TIP3      H2             19.4197404359       -4.3708338780      -37.5414034186  TIP3      3590            0.0000000000
     24239      3737  TIP3      OH2            17.1969634129       -3.8161851821      -25.4208734542  TIP3      3591            0.0000000000
     24240      3737  TIP3      H1             16.9272260408       -4.7314773349      -25.2270091026  TIP3      3591            0.0000000000
     24241      3737  TIP3      H2             18.1201309245       -3.8334396825      -25.0726741070  TIP3      3591            0.0000000000
     24242      3738  TIP3      OH2            19.7497795712       -4.6496017001      -33.8966371182  TIP3      3592            0.0000000000
     24243      3738  TIP3      H1             19.5845474781       -3.7827221941      -34.3200285522  TIP3      3592            0.0000000000
     24244      3738  TIP3      H2             19.6975759035       -5.2189536381      -34.6816100406  TIP3      3592            0.0000000000
     24245      3739  TIP3      OH2            10.7850871660       -4.8920173108      -29.4171612280  TIP3      3593            0.0000000000
     24246      3739  TIP3      H1             10.9051719154       -4.5107139489      -28.5320934745  TIP3      3593            0.0000000000
     24247      3739  TIP3      H2             10.3940746073       -5.7575313294      -29.1987510916  TIP3      3593            0.0000000000
     24248      3740  TIP3      OH2            13.9107702000       -7.0927886246      -41.7807578803  TIP3      3594            0.0000000000
     24249      3740  TIP3      H1             13.6187267152       -7.7373665685      -41.0952909511  TIP3      3594            0.0000000000
     24250      3740  TIP3      H2             13.7183385229       -6.2570534179      -41.3218006497  TIP3      3594            0.0000000000
     24251      3741  TIP3      OH2             7.6794621009       -7.6700277077      -34.8753529475  TIP3      3595            0.0000000000
     24252      3741  TIP3      H1              8.4497195977       -7.6723698803      -34.2910066093  TIP3      3595            0.0000000000
     24253      3741  TIP3      H2              7.9112532640       -6.9722667472      -35.5041562496  TIP3      3595            0.0000000000
     24254      3742  TIP3      OH2             8.6270663724       -7.1085161460      -39.7811652291  TIP3      3596            0.0000000000
     24255      3742  TIP3      H1              9.2957378879       -6.5575340712      -40.2331335787  TIP3      3596            0.0000000000
     24256      3742  TIP3      H2              7.9668072119       -6.4088294688      -39.6218773652  TIP3      3596            0.0000000000
     24257      3743  TIP3      OH2            18.6543818305       -2.7826073567      -29.8564495034  TIP3      3597            0.0000000000
     24258      3743  TIP3      H1             19.3621287300       -3.3361945977      -30.2456393496  TIP3      3597            0.0000000000
     24259      3743  TIP3      H2             18.2046265697       -3.4054462010      -29.2343215170  TIP3      3597            0.0000000000
     24260      3744  TIP3      OH2            16.2206059741       -7.6755105700      -34.8836313777  TIP3      3598            0.0000000000
     24261      3744  TIP3      H1             15.2490467393       -7.7287315919      -34.8137541040  TIP3      3598            0.0000000000
     24262      3744  TIP3      H2             16.5426815542       -8.0712363946      -34.0404720047  TIP3      3598            0.0000000000
     24263      3745  TIP3      OH2            10.4999038517       -5.9159670243      -35.7832308141  TIP3      3599            0.0000000000
     24264      3745  TIP3      H1              9.9178203925       -5.4393323165      -36.4186868705  TIP3      3599            0.0000000000
     24265      3745  TIP3      H2             10.6182247364       -6.7948709091      -36.2010473204  TIP3      3599            0.0000000000
     24266      3746  TIP3      OH2            14.0634982428       -5.4296105618      -38.8853280168  TIP3      3600            0.0000000000
     24267      3746  TIP3      H1             14.9163389493       -5.0777013850      -38.5913461333  TIP3      3600            0.0000000000
     24268      3746  TIP3      H2             13.7064922257       -4.7449884668      -39.4872313482  TIP3      3600            0.0000000000
     24269      3747  TIP3      OH2            20.3753104431       -8.1078839849      -31.9947614297  TIP3      3601            0.0000000000
     24270      3747  TIP3      H1             19.6450129831       -8.0770072111      -31.3459484254  TIP3      3601            0.0000000000
     24271      3747  TIP3      H2             20.1413425178       -8.8539727348      -32.5889607544  TIP3      3601            0.0000000000
     24272      3748  TIP3      OH2            12.9510327722       -4.0365794036      -40.9468233541  TIP3      3602            0.0000000000
     24273      3748  TIP3      H1             12.4896141009       -4.2456536162      -41.7692292720  TIP3      3602            0.0000000000
     24274      3748  TIP3      H2             13.8628505514       -3.8562977054      -41.2707470791  TIP3      3602            0.0000000000
     24275      3749  TIP3      OH2            23.0892780647        7.5100671501      -25.0830894595  TIP3      3603            0.0000000000
     24276      3749  TIP3      H1             23.5742090773        7.8227557245      -25.8737676251  TIP3      3603            0.0000000000
     24277      3749  TIP3      H2             23.6120513076        7.8673735271      -24.3389035902  TIP3      3603            0.0000000000
     24278      3750  TIP3      OH2            10.8176183095        0.2575044360      -25.4487604953  TIP3      3604            0.0000000000
     24279      3750  TIP3      H1             11.4965746891        0.4670407103      -24.7815683456  TIP3      3604            0.0000000000
     24280      3750  TIP3      H2             10.0951932710       -0.1356173718      -24.9151736383  TIP3      3604            0.0000000000
     24281      3751  TIP3      OH2            16.2353092393       -4.4150807391      -33.3615927061  TIP3      3605            0.0000000000
     24282      3751  TIP3      H1             17.1879482223       -4.5993537421      -33.4078557587  TIP3      3605            0.0000000000
     24283      3751  TIP3      H2             15.9459377219       -5.0200185974      -32.6635511725  TIP3      3605            0.0000000000
     24284      3752  TIP3      OH2            11.6645041665       -8.6484583588      -36.4328326634  TIP3      3606            0.0000000000
     24285      3752  TIP3      H1             11.0558888964       -9.2670881326      -35.9714539259  TIP3      3606            0.0000000000
     24286      3752  TIP3      H2             12.2171449277       -9.2769949638      -36.9254358072  TIP3      3606            0.0000000000
     24287      3753  TIP3      OH2            15.2310179409       -6.2278909633      -30.6959013590  TIP3      3607            0.0000000000
     24288      3753  TIP3      H1             14.4794189136       -5.5841463215      -30.7141800132  TIP3      3607            0.0000000000
     24289      3753  TIP3      H2             15.9438026636       -5.7072774873      -30.2988762949  TIP3      3607            0.0000000000
     24290      3754  TIP3      OH2            16.2926846481        0.1305765336      -38.3474947042  TIP3      3608            0.0000000000
     24291      3754  TIP3      H1             15.5520547590       -0.3379954997      -38.7825768170  TIP3      3608            0.0000000000
     24292      3754  TIP3      H2             15.8610590625        0.4171299708      -37.5034887206  TIP3      3608            0.0000000000
     24293      3755  TIP3      OH2            23.5878975254        0.0191588888      -30.2201317027  TIP3      3609            0.0000000000
     24294      3755  TIP3      H1             24.2327009250        0.4497339117      -30.8388374351  TIP3      3609            0.0000000000
     24295      3755  TIP3      H2             22.8206340854       -0.1342628904      -30.8044066882  TIP3      3609            0.0000000000
     24296      3756  TIP3      OH2            20.0537631218       -6.9765442142      -40.8060950650  TIP3      3610            0.0000000000
     24297      3756  TIP3      H1             19.1145970895       -6.8864763974      -41.0730146642  TIP3      3610            0.0000000000
     24298      3756  TIP3      H2             20.1979590572       -6.1077825808      -40.3956725654  TIP3      3610            0.0000000000
     24299      3757  TIP3      OH2            17.6637357745        0.6391272299      -27.3814435337  TIP3      3611            0.0000000000
     24300      3757  TIP3      H1             17.1293941052        0.3751175925      -26.6112185606  TIP3      3611            0.0000000000
     24301      3757  TIP3      H2             17.6791496707        1.6067149836      -27.2740433512  TIP3      3611            0.0000000000
     24302      3758  TIP3      OH2            20.4869345837       -4.8538039875      -38.8816191870  TIP3      3612            0.0000000000
     24303      3758  TIP3      H1             21.3242840826       -5.1254661236      -38.4461236572  TIP3      3612            0.0000000000
     24304      3758  TIP3      H2             20.6852565610       -3.9299828365      -39.1287295018  TIP3      3612            0.0000000000
     24305      3759  TIP3      OH2            11.2986050255       -0.3546269764      -33.3576226900  TIP3      3613            0.0000000000
     24306      3759  TIP3      H1             11.5393779313       -0.6336949179      -34.2652410922  TIP3      3613            0.0000000000
     24307      3759  TIP3      H2             11.7098968464       -1.0543601721      -32.8277231495  TIP3      3613            0.0000000000
     24308      3760  TIP3      OH2            18.0468310286        1.5023631516      -39.8565169151  TIP3      3614            0.0000000000
     24309      3760  TIP3      H1             17.6918308228        2.3516139265      -39.5041375560  TIP3      3614            0.0000000000
     24310      3760  TIP3      H2             17.3980276910        0.8674400758      -39.4713285464  TIP3      3614            0.0000000000
     24311      3761  TIP3      OH2             8.4807139447       -2.2241777119      -27.8215321796  TIP3      3615            0.0000000000
     24312      3761  TIP3      H1              8.2184440272       -2.7384643074      -27.0309411645  TIP3      3615            0.0000000000
     24313      3761  TIP3      H2              7.6974982783       -2.3061593190      -28.3949442254  TIP3      3615            0.0000000000
     24314      3762  TIP3      OH2            15.0448887960       -2.3988405098      -26.0177552473  TIP3      3616            0.0000000000
     24315      3762  TIP3      H1             14.8283393030       -2.9688712748      -26.7749376952  TIP3      3616            0.0000000000
     24316      3762  TIP3      H2             15.9443990276       -2.7374361119      -25.8078922653  TIP3      3616            0.0000000000
     24317      3763  TIP3      OH2            20.3742139869        2.6857153284      -27.3970093776  TIP3      3617            0.0000000000
     24318      3763  TIP3      H1             19.6415635226        2.9716189291      -27.9633726189  TIP3      3617            0.0000000000
     24319      3763  TIP3      H2             20.0519927670        2.9782841362      -26.5183528984  TIP3      3617            0.0000000000
     24320      3764  TIP3      OH2            25.4160228880       -4.9721000910      -39.1982414128  TIP3      3618            0.0000000000
     24321      3764  TIP3      H1             24.9261798520       -5.0043294396      -40.0411732262  TIP3      3618            0.0000000000
     24322      3764  TIP3      H2             25.6779056932       -4.0247395239      -39.2139480857  TIP3      3618            0.0000000000
     24323      3765  TIP3      OH2            26.1442507079        1.3654354131      -26.3905006142  TIP3      3619            0.0000000000
     24324      3765  TIP3      H1             25.2382489795        1.1350911510      -26.1208844624  TIP3      3619            0.0000000000
     24325      3765  TIP3      H2             26.2051622673        0.9804510690      -27.2872189593  TIP3      3619            0.0000000000
     24326      3766  TIP3      OH2            23.5179109525        3.9653516173      -39.1058140738  TIP3      3620            0.0000000000
     24327      3766  TIP3      H1             23.5544432960        3.1930145189      -38.5307229455  TIP3      3620            0.0000000000
     24328      3766  TIP3      H2             24.1322211990        3.7815677650      -39.8364111989  TIP3      3620            0.0000000000
     24329      3767  TIP3      OH2            21.1319236170       -1.2151714134      -31.8922175016  TIP3      3621            0.0000000000
     24330      3767  TIP3      H1             20.2521346338       -1.5670702335      -32.1310662918  TIP3      3621            0.0000000000
     24331      3767  TIP3      H2             21.7002234923       -1.8296508296      -32.4002375783  TIP3      3621            0.0000000000
     24332      3768  TIP3      OH2            13.6486365139        3.0469605080      -35.9969813717  TIP3      3622            0.0000000000
     24333      3768  TIP3      H1             13.8030053221        3.9972159174      -36.1885753628  TIP3      3622            0.0000000000
     24334      3768  TIP3      H2             12.6974754135        2.9736294114      -36.1352317035  TIP3      3622            0.0000000000
     24335      3769  TIP3      OH2             9.5372431412       -2.0620204730      -40.9256009099  TIP3      3623            0.0000000000
     24336      3769  TIP3      H1             10.0543001827       -1.5181783172      -40.2990496069  TIP3      3623            0.0000000000
     24337      3769  TIP3      H2              8.6065600469       -1.9622623237      -40.6401981054  TIP3      3623            0.0000000000
     24338      3770  TIP3      OH2            14.8164669358        0.6772262884      -36.1466833645  TIP3      3624            0.0000000000
     24339      3770  TIP3      H1             14.4047775696        1.5759407199      -36.1001202688  TIP3      3624            0.0000000000
     24340      3770  TIP3      H2             14.2084982334        0.1045413515      -35.6572829666  TIP3      3624            0.0000000000
     24341      3771  TIP3      OH2            15.5501215447        4.9261573530      -29.2506197157  TIP3      3625            0.0000000000
     24342      3771  TIP3      H1             16.2106027170        5.5495698609      -29.6053134636  TIP3      3625            0.0000000000
     24343      3771  TIP3      H2             16.0913119821        4.4951182783      -28.5596752315  TIP3      3625            0.0000000000
     24344      3772  TIP3      OH2            13.9325271166        5.6802106869      -36.7421531002  TIP3      3626            0.0000000000
     24345      3772  TIP3      H1             12.9563547340        5.7259876930      -36.6343716788  TIP3      3626            0.0000000000
     24346      3772  TIP3      H2             14.1713207840        6.4921470848      -36.2496757487  TIP3      3626            0.0000000000
     24347      3773  TIP3      OH2            18.7692229827        0.8620588063      -30.0965461929  TIP3      3627            0.0000000000
     24348      3773  TIP3      H1             18.5375638808        0.5563963398      -29.1839624100  TIP3      3627            0.0000000000
     24349      3773  TIP3      H2             19.3339625418        0.1300959212      -30.4047513610  TIP3      3627            0.0000000000
     24350      3774  TIP3      OH2            21.3191111086        1.9195011764      -40.7867422946  TIP3      3628            0.0000000000
     24351      3774  TIP3      H1             21.6234502833        1.5362276945      -39.9395117943  TIP3      3628            0.0000000000
     24352      3774  TIP3      H2             20.3625213915        1.7438068337      -40.7300037244  TIP3      3628            0.0000000000
     24353      3775  TIP3      OH2            22.1495701518        5.2635995782      -27.6878382009  TIP3      3629            0.0000000000
     24354      3775  TIP3      H1             21.2852882000        4.8112065311      -27.7211121823  TIP3      3629            0.0000000000
     24355      3775  TIP3      H2             22.0953272386        5.8753793349      -28.4555761205  TIP3      3629            0.0000000000
     24356      3776  TIP3      OH2            25.5834397510        6.0999153442      -40.7871405451  TIP3      3630            0.0000000000
     24357      3776  TIP3      H1             25.7198855216        6.4779040044      -41.6813693894  TIP3      3630            0.0000000000
     24358      3776  TIP3      H2             25.0454669616        6.7933664037      -40.3603912653  TIP3      3630            0.0000000000
     24359      3777  TIP3      OH2            10.1790440286       -7.4821016877      -28.1639050214  TIP3      3631            0.0000000000
     24360      3777  TIP3      H1              9.5799473860       -7.0055184450      -27.5655784695  TIP3      3631            0.0000000000
     24361      3777  TIP3      H2             10.0885247447       -8.3753950029      -27.7982178822  TIP3      3631            0.0000000000
     24362      3778  TIP3      OH2            22.2624310945        0.6177045718      -38.6863076587  TIP3      3632            0.0000000000
     24363      3778  TIP3      H1             22.0908628153       -0.1706008814      -38.1155314048  TIP3      3632            0.0000000000
     24364      3778  TIP3      H2             23.2355270622        0.6607767235      -38.5966218508  TIP3      3632            0.0000000000
     24365      3779  TIP3      OH2             9.6299893256        4.2703909097      -29.9306505056  TIP3      3633            0.0000000000
     24366      3779  TIP3      H1             10.4651720563        3.7963894898      -29.8466857209  TIP3      3633            0.0000000000
     24367      3779  TIP3      H2              9.6849045903        4.8426301515      -29.1536710694  TIP3      3633            0.0000000000
     24368      3780  TIP3      OH2            14.1739810735        2.3714338963      -40.0998153355  TIP3      3634            0.0000000000
     24369      3780  TIP3      H1             14.8068038765        1.8637608278      -39.5711032416  TIP3      3634            0.0000000000
     24370      3780  TIP3      H2             14.4196485374        3.3064505446      -39.8833927656  TIP3      3634            0.0000000000
     24371      3781  TIP3      OH2            10.8572773956       -0.2317341748      -39.3256603020  TIP3      3635            0.0000000000
     24372      3781  TIP3      H1             10.0955233977        0.1008110072      -38.7959202683  TIP3      3635            0.0000000000
     24373      3781  TIP3      H2             11.1951137147        0.5831089500      -39.7503771410  TIP3      3635            0.0000000000
     24374      3782  TIP3      OH2            18.5876062763       -7.4457669734      -29.1072589610  TIP3      3636            0.0000000000
     24375      3782  TIP3      H1             19.4953398667       -7.1621656908      -28.8957266474  TIP3      3636            0.0000000000
     24376      3782  TIP3      H2             18.5179001821       -8.3243760588      -28.6904170880  TIP3      3636            0.0000000000
     24377      3783  TIP3      OH2            19.4186966909       -8.0313513895      -38.0909233107  TIP3      3637            0.0000000000
     24378      3783  TIP3      H1             19.8406916120       -7.4941649902      -38.7730629839  TIP3      3637            0.0000000000
     24379      3783  TIP3      H2             19.8320043741       -7.6954524922      -37.2675315585  TIP3      3637            0.0000000000
     24380      3784  TIP3      OH2            17.1291706284        3.9345438545      -39.0458178105  TIP3      3638            0.0000000000
     24381      3784  TIP3      H1             16.4137082027        4.5794385348      -38.8917398575  TIP3      3638            0.0000000000
     24382      3784  TIP3      H2             17.5151959635        4.2801251426      -39.8742550962  TIP3      3638            0.0000000000
     24383      3785  TIP3      OH2            16.8340978669       -6.1092734678      -36.9983835206  TIP3      3639            0.0000000000
     24384      3785  TIP3      H1             17.5082724694       -5.4214365920      -36.8290403654  TIP3      3639            0.0000000000
     24385      3785  TIP3      H2             16.7367091531       -6.5484135045      -36.1214264283  TIP3      3639            0.0000000000
     24386      3786  TIP3      OH2            17.6273285146       -4.7441864649      -28.2849448117  TIP3      3640            0.0000000000
     24387      3786  TIP3      H1             17.6266798985       -4.6491205660      -27.3108206534  TIP3      3640            0.0000000000
     24388      3786  TIP3      H2             17.8654593402       -5.6746433292      -28.4332306561  TIP3      3640            0.0000000000
     24389      3787  TIP3      OH2            17.4056644700       -9.3281762828      -36.8819433721  TIP3      3641            0.0000000000
     24390      3787  TIP3      H1             17.0313816933       -8.6765530807      -36.2539546292  TIP3      3641            0.0000000000
     24391      3787  TIP3      H2             18.1842688652       -8.8271189453      -37.2462637782  TIP3      3641            0.0000000000
     24392      3788  TIP3      OH2            14.5561341576        4.9898578699      -39.3465471867  TIP3      3642            0.0000000000
     24393      3788  TIP3      H1             14.7120843031        5.8094517065      -39.8696535609  TIP3      3642            0.0000000000
     24394      3788  TIP3      H2             14.2271446819        5.3806523940      -38.5071940804  TIP3      3642            0.0000000000
     24395      3789  TIP3      OH2            12.9822668382       -8.1996692584      -39.5361371018  TIP3      3643            0.0000000000
     24396      3789  TIP3      H1             12.7513301483       -7.4151976405      -39.0190837894  TIP3      3643            0.0000000000
     24397      3789  TIP3      H2             13.9039026896       -8.3179218576      -39.2178439520  TIP3      3643            0.0000000000
     24398      3790  TIP3      OH2            23.5805203403       -7.6772635300      -26.9672424291  TIP3      3644            0.0000000000
     24399      3790  TIP3      H1             22.6631535907       -7.8719506455      -27.2301422890  TIP3      3644            0.0000000000
     24400      3790  TIP3      H2             23.9533035329       -7.2804474378      -27.7799796016  TIP3      3644            0.0000000000
     24401      3791  TIP3      OH2            22.1522511030       -3.3584935423      -33.3134980718  TIP3      3645            0.0000000000
     24402      3791  TIP3      H1             21.3790077979       -3.9259522966      -33.1545855951  TIP3      3645            0.0000000000
     24403      3791  TIP3      H2             22.8418077552       -3.8360419736      -32.7879794228  TIP3      3645            0.0000000000
     24404      3792  TIP3      OH2            11.4286268724        2.3030951910      -40.8201877238  TIP3      3646            0.0000000000
     24405      3792  TIP3      H1             12.2592534480        2.5967018172      -40.3927979778  TIP3      3646            0.0000000000
     24406      3792  TIP3      H2             11.8213149877        1.7646561333      -41.5269167534  TIP3      3646            0.0000000000
     24407      3793  TIP3      OH2             9.7442638169       -4.9836809602      -40.9922781495  TIP3      3647            0.0000000000
     24408      3793  TIP3      H1              9.9882196918       -4.0455886263      -40.8871428468  TIP3      3647            0.0000000000
     24409      3793  TIP3      H2              9.1838456120       -4.9539320634      -41.7779147653  TIP3      3647            0.0000000000
     24410      3794  TIP3      OH2            23.0447402682        5.5992236853      -31.9931848958  TIP3      3648            0.0000000000
     24411      3794  TIP3      H1             22.9002450766        6.3663975599      -32.5801938613  TIP3      3648            0.0000000000
     24412      3794  TIP3      H2             24.0061204515        5.6965465264      -31.8175958800  TIP3      3648            0.0000000000
     24413      3795  TIP3      OH2            10.3509787836      -10.2252710255      -32.5525146044  TIP3      3649            0.0000000000
     24414      3795  TIP3      H1             10.2562910376      -10.4696074379      -33.5014742822  TIP3      3649            0.0000000000
     24415      3795  TIP3      H2             10.0648855698      -11.0793704098      -32.1674628403  TIP3      3649            0.0000000000
     24416      3796  TIP3      OH2             9.1928545740        4.0578831871      -36.8579790030  TIP3      3650            0.0000000000
     24417      3796  TIP3      H1              8.2764319202        4.3521336953      -36.7795787375  TIP3      3650            0.0000000000
     24418      3796  TIP3      H2              9.3968366651        4.4508379536      -37.7366548847  TIP3      3650            0.0000000000
     24419      3797  TIP3      OH2             8.5076877016        6.4968789140      -25.5176231105  TIP3      3651            0.0000000000
     24420      3797  TIP3      H1              9.3714816123        6.4611741265      -25.0491053094  TIP3      3651            0.0000000000
     24421      3797  TIP3      H2              8.2957292128        5.5483826718      -25.5848217712  TIP3      3651            0.0000000000
     24422      3798  TIP3      OH2            13.3493898405        4.9529460277      -23.6678761408  TIP3      3652            0.0000000000
     24423      3798  TIP3      H1             14.3181474493        4.8410814756      -23.7319514420  TIP3      3652            0.0000000000
     24424      3798  TIP3      H2             13.0754214120        4.4782836031      -24.4789924411  TIP3      3652            0.0000000000
     24425      3799  TIP3      OH2            18.0039455879        5.0096505441      -41.4394679682  TIP3      3653            0.0000000000
     24426      3799  TIP3      H1             17.3931594107        4.4750221772      -41.9928558204  TIP3      3653            0.0000000000
     24427      3799  TIP3      H2             18.8154279595        4.9627895649      -41.9667233523  TIP3      3653            0.0000000000
     24428      3800  TIP3      OH2            19.7442732561        4.2534300343      -25.0188912323  TIP3      3654            0.0000000000
     24429      3800  TIP3      H1             19.6505091636        3.3825080034      -24.5608677883  TIP3      3654            0.0000000000
     24430      3800  TIP3      H2             20.6009147066        4.5314562027      -24.6206800144  TIP3      3654            0.0000000000
     24431      3801  TIP3      OH2            22.3140060239        4.2453502300      -42.0509089766  TIP3      3655            0.0000000000
     24432      3801  TIP3      H1             21.9228967320        3.5508306507      -41.4824437772  TIP3      3655            0.0000000000
     24433      3801  TIP3      H2             23.2236595160        3.9064622073      -42.0856860685  TIP3      3655            0.0000000000
     24434      3802  TIP3      OH2             8.3849485652       -0.0795837194      -24.3490388001  TIP3      3656            0.0000000000
     24435      3802  TIP3      H1              8.0291010972       -0.9829416891      -24.3978409045  TIP3      3656            0.0000000000
     24436      3802  TIP3      H2              7.9693784907        0.3235634223      -25.1403298163  TIP3      3656            0.0000000000
     24437      3803  TIP3      OH2            13.0004953200       -0.0913967848      -42.0080801906  TIP3      3657            0.0000000000
     24438      3803  TIP3      H1             13.5480353891       -0.2520034276      -41.2104335809  TIP3      3657            0.0000000000
     24439      3803  TIP3      H2             13.6358256730       -0.3485111978      -42.7116535641  TIP3      3657            0.0000000000
     24440      3804  TIP3      OH2            15.5163859192        0.1744967784      -25.5831317422  TIP3      3658            0.0000000000
     24441      3804  TIP3      H1             15.0438102661        0.7471579558      -26.2228293428  TIP3      3658            0.0000000000
     24442      3804  TIP3      H2             15.3124116344       -0.7452246901      -25.8992934764  TIP3      3658            0.0000000000
     24443      3805  TIP3      OH2            21.1379155610        0.0898936138      -27.6992877395  TIP3      3659            0.0000000000
     24444      3805  TIP3      H1             22.0569514220        0.4371381485      -27.6549395164  TIP3      3659            0.0000000000
     24445      3805  TIP3      H2             20.7000613858        0.9661473054      -27.5975144619  TIP3      3659            0.0000000000
     24446      3806  TIP3      OH2             9.8348153105       -2.7873049124      -24.6408439504  TIP3      3660            0.0000000000
     24447      3806  TIP3      H1             10.2393538289       -3.6046606830      -24.3249770075  TIP3      3660            0.0000000000
     24448      3806  TIP3      H2              9.8860035629       -2.2516405812      -23.8278960265  TIP3      3660            0.0000000000
     24449      3807  TIP3      OH2            14.4414782102       -1.3871461593      -39.9791412886  TIP3      3661            0.0000000000
     24450      3807  TIP3      H1             13.6890604560       -1.8633857261      -39.5808391533  TIP3      3661            0.0000000000
     24451      3807  TIP3      H2             14.8612837435       -2.0993870106      -40.5045118976  TIP3      3661            0.0000000000
     24452      3808  TIP3      OH2            13.5455437016       -3.6695943272      -28.0522524162  TIP3      3662            0.0000000000
     24453      3808  TIP3      H1             12.7851605344       -3.1116994749      -27.7680382719  TIP3      3662            0.0000000000
     24454      3808  TIP3      H2             14.0739221500       -3.0145382185      -28.5371069042  TIP3      3662            0.0000000000
     24455      3809  TIP3      OH2            15.4477317723       -3.2652315896      -41.7261260594  TIP3      3663            0.0000000000
     24456      3809  TIP3      H1             15.5295833314       -2.6336163802      -42.4642042303  TIP3      3663            0.0000000000
     24457      3809  TIP3      H2             16.3927567049       -3.3171098205      -41.4389718635  TIP3      3663            0.0000000000
     24458      3810  TIP3      OH2            18.9367794860       -0.8908229080      -24.1777017724  TIP3      3664            0.0000000000
     24459      3810  TIP3      H1             19.7579032910       -0.9130148387      -24.7191017445  TIP3      3664            0.0000000000
     24460      3810  TIP3      H2             18.9163573266       -1.8091004144      -23.8788967150  TIP3      3664            0.0000000000
     24461      3811  TIP3      OH2            24.5173019897       -0.3049842803       42.1164277035  TIP3      3665            0.0000000000
     24462      3811  TIP3      H1             24.0893433947       -0.2811592380       41.2492696093  TIP3      3665            0.0000000000
     24463      3811  TIP3      H2             24.7568653689        0.6276539421       42.2344660952  TIP3      3665            0.0000000000
     24464      3812  TIP3      OH2            14.3900603691       -5.8947621469      -26.9991482906  TIP3      3666            0.0000000000
     24465      3812  TIP3      H1             14.2799072752       -6.5729014269      -27.7039964741  TIP3      3666            0.0000000000
     24466      3812  TIP3      H2             14.1570182775       -5.0552542580      -27.4770580358  TIP3      3666            0.0000000000
     24467      3813  TIP3      OH2            14.4484182901       -7.9279787285      -28.8152045499  TIP3      3667            0.0000000000
     24468      3813  TIP3      H1             14.8718889358       -7.3540378069      -29.5020948222  TIP3      3667            0.0000000000
     24469      3813  TIP3      H2             13.5813218215       -8.1156049211      -29.2291700960  TIP3      3667            0.0000000000
     24470      3814  TIP3      OH2            15.5591229214       -2.0369588945      -29.0028435604  TIP3      3668            0.0000000000
     24471      3814  TIP3      H1             16.4228967280       -1.6985437935      -29.2923759591  TIP3      3668            0.0000000000
     24472      3814  TIP3      H2             14.9463843879       -1.3563822317      -29.3774963375  TIP3      3668            0.0000000000
     24473      3815  TIP3      OH2            19.5523520421       -4.2346744578      -24.1342649211  TIP3      3669            0.0000000000
     24474      3815  TIP3      H1             19.7705350216       -5.1721577783      -23.9949320631  TIP3      3669            0.0000000000
     24475      3815  TIP3      H2             20.4258375320       -3.8294352645      -24.0433609719  TIP3      3669            0.0000000000
     24476      3816  TIP3      OH2            21.4404226506       -1.4521384646      -25.4366985619  TIP3      3670            0.0000000000
     24477      3816  TIP3      H1             21.2916258594       -0.9763575313      -26.2840760655  TIP3      3670            0.0000000000
     24478      3816  TIP3      H2             22.3898729958       -1.6475886383      -25.5481120211  TIP3      3670            0.0000000000
     24479      3817  TIP3      OH2            12.7679725901       -5.3845403129      -24.8537111554  TIP3      3671            0.0000000000
     24480      3817  TIP3      H1             11.8619372234       -5.5433559379      -25.1559437078  TIP3      3671            0.0000000000
     24481      3817  TIP3      H2             13.2853413925       -5.6349477253      -25.6469076654  TIP3      3671            0.0000000000
     24482      3818  TIP3      OH2            15.2182043237      -10.5060737936      -29.0459862295  TIP3      3672            0.0000000000
     24483      3818  TIP3      H1             14.9083841374       -9.5797390811      -28.9321934095  TIP3      3672            0.0000000000
     24484      3818  TIP3      H2             14.4030897332      -10.9679285921      -29.2820755361  TIP3      3672            0.0000000000
     24485      3819  TIP3      OH2            15.9958257499       -6.2377280021      -24.7540351215  TIP3      3673            0.0000000000
     24486      3819  TIP3      H1             15.2114070048       -6.0909081089      -24.2002995464  TIP3      3673            0.0000000000
     24487      3819  TIP3      H2             15.5389354093       -6.3614438605      -25.6192491040  TIP3      3673            0.0000000000
     24488      3820  TIP3      OH2            18.6119285129       -6.7190897640      -25.9604349492  TIP3      3674            0.0000000000
     24489      3820  TIP3      H1             17.7339156163       -6.6877118025      -25.5422584030  TIP3      3674            0.0000000000
     24490      3820  TIP3      H2             19.1302278285       -7.3136079112      -25.3915296782  TIP3      3674            0.0000000000
     24491      3821  TIP3      OH2            20.8999029960       -8.2586830146      -24.6714064746  TIP3      3675            0.0000000000
     24492      3821  TIP3      H1             20.6859607247       -9.2081739880      -24.4988619347  TIP3      3675            0.0000000000
     24493      3821  TIP3      H2             20.5735820381       -7.8463607869      -23.8485466618  TIP3      3675            0.0000000000
     24494      3822  TIP3      OH2            10.0739506137       -7.1843550231      -24.8210818213  TIP3      3676            0.0000000000
     24495      3822  TIP3      H1             10.2538819031       -8.0742781445      -25.1720165881  TIP3      3676            0.0000000000
     24496      3822  TIP3      H2             10.0380438202       -7.3082044441      -23.8578455170  TIP3      3676            0.0000000000
     24497      3823  TIP3      OH2            14.8972942532      -11.0166640902      -26.4361075931  TIP3      3677            0.0000000000
     24498      3823  TIP3      H1             15.5776055107      -11.6874978701      -26.3310779026  TIP3      3677            0.0000000000
     24499      3823  TIP3      H2             14.9891099582      -10.8261892234      -27.3890389345  TIP3      3677            0.0000000000
     24500      3824  TIP3      OH2            14.8241378197        7.2796097232      -40.6723030635  TIP3      3678            0.0000000000
     24501      3824  TIP3      H1             15.3689018213        8.0455571341      -40.4473204748  TIP3      3678            0.0000000000
     24502      3824  TIP3      H2             15.0710540912        7.1302330932      -41.6083539238  TIP3      3678            0.0000000000
     24503      3825  TIP3      OH2             8.6742928014        1.7713296686      -41.1062787011  TIP3      3679            0.0000000000
     24504      3825  TIP3      H1              9.6412233597        1.9241663986      -41.0428481060  TIP3      3679            0.0000000000
     24505      3825  TIP3      H2              8.6166563835        1.5391303049      -42.0462290572  TIP3      3679            0.0000000000
     24506      3826  TIP3      OH2             7.7149949291        6.9300282045      -36.2672510821  TIP3      3680            0.0000000000
     24507      3826  TIP3      H1              6.8849532023        6.5214663068      -36.6087793466  TIP3      3680            0.0000000000
     24508      3826  TIP3      H2              7.9356640721        6.3240655993      -35.5315105653  TIP3      3680            0.0000000000
     24509      3827  TIP3      OH2             8.3780158057        5.2473666778      -34.2448423546  TIP3      3681            0.0000000000
     24510      3827  TIP3      H1              8.2995834019        4.3061218937      -34.0060512760  TIP3      3681            0.0000000000
     24511      3827  TIP3      H2              9.0538982618        5.5709343626      -33.6077513441  TIP3      3681            0.0000000000
     24512      3828  TIP3      OH2            25.3305320016        6.6575423282      -30.7960169515  TIP3      3682            0.0000000000
     24513      3828  TIP3      H1             25.6045751055        6.7262798804      -29.8593534556  TIP3      3682            0.0000000000
     24514      3828  TIP3      H2             26.1345497953        6.9236408060      -31.2534673922  TIP3      3682            0.0000000000
     24515      3829  TIP3      OH2            25.4556782968        5.7449761452      -28.2979457347  TIP3      3683            0.0000000000
     24516      3829  TIP3      H1             25.0933483349        5.0581384143      -28.9018421189  TIP3      3683            0.0000000000
     24517      3829  TIP3      H2             25.8600662797        5.1952501707      -27.5886456528  TIP3      3683            0.0000000000
     24518      3830  TIP3      OH2            24.3563433007        1.5337165078      -23.5415774671  TIP3      3684            0.0000000000
     24519      3830  TIP3      H1             23.5093377243        1.6173453256      -23.0501327514  TIP3      3684            0.0000000000
     24520      3830  TIP3      H2             24.6849405949        2.4547363374      -23.4048750393  TIP3      3684            0.0000000000
     24521      3831  TIP3      OH2            24.9650018843       -0.1129546120      -38.5553897646  TIP3      3685            0.0000000000
     24522      3831  TIP3      H1             25.8119203420        0.2929007524      -38.2871267511  TIP3      3685            0.0000000000
     24523      3831  TIP3      H2             24.8596010201       -0.7800665850      -37.8437016157  TIP3      3685            0.0000000000
     24524      3832  TIP3      OH2            25.6549684099       -2.0908054713      -36.7527400275  TIP3      3686            0.0000000000
     24525      3832  TIP3      H1             24.9118640801       -2.3513537677      -36.1714502690  TIP3      3686            0.0000000000
     24526      3832  TIP3      H2             26.2592436582       -1.6910331794      -36.0990846308  TIP3      3686            0.0000000000
     24527      3833  TIP3      OH2            25.5502336097        0.7324247037      -31.7073248282  TIP3      3687            0.0000000000
     24528      3833  TIP3      H1             26.1084482398       -0.0188471178      -32.0033072584  TIP3      3687            0.0000000000
     24529      3833  TIP3      H2             26.0203333624        1.5303351133      -32.0275951480  TIP3      3687            0.0000000000
     24530      3834  TIP3      OH2            23.8479431923        3.6450292187      -29.3556541864  TIP3      3688            0.0000000000
     24531      3834  TIP3      H1             23.1889570286        4.2278296483      -28.9420749125  TIP3      3688            0.0000000000
     24532      3834  TIP3      H2             23.4313171714        3.3995658592      -30.2003752397  TIP3      3688            0.0000000000
     24533      3835  TIP3      OH2            25.4489151213       -2.4020592310      -40.2821734140  TIP3      3689            0.0000000000
     24534      3835  TIP3      H1             24.7355845714       -2.2152032600      -40.9095814272  TIP3      3689            0.0000000000
     24535      3835  TIP3      H2             25.2322911675       -1.7554559291      -39.5867720676  TIP3      3689            0.0000000000
     24536      3836  TIP3      OH2            23.3697688594       -5.0352010936      -41.4613557971  TIP3      3690            0.0000000000
     24537      3836  TIP3      H1             24.0362793604       -4.7588852711      -42.1245161032  TIP3      3690            0.0000000000
     24538      3836  TIP3      H2             23.4034879003       -5.9942457477      -41.6145965500  TIP3      3690            0.0000000000
     24539      3837  TIP3      OH2            23.4135775774       -3.2460147955      -35.6611778678  TIP3      3691            0.0000000000
     24540      3837  TIP3      H1             23.3638866180       -4.1821227265      -35.8938834616  TIP3      3691            0.0000000000
     24541      3837  TIP3      H2             23.0117137505       -3.2489443518      -34.7572266381  TIP3      3691            0.0000000000
     24542      3838  TIP3      OH2             8.1953239800       -1.3210758642      -31.5553335891  TIP3      3692            0.0000000000
     24543      3838  TIP3      H1              8.1634923539       -1.5876927793      -32.5054674363  TIP3      3692            0.0000000000
     24544      3838  TIP3      H2              9.1382123829       -1.5253168371      -31.3193634295  TIP3      3692            0.0000000000
     24545      3839  TIP3      OH2            24.5350529253       -1.5945022808      -26.2680047667  TIP3      3693            0.0000000000
     24546      3839  TIP3      H1             24.6995181315       -2.5569190867      -26.1154452008  TIP3      3693            0.0000000000
     24547      3839  TIP3      H2             25.3792491817       -1.3459239940      -26.6907590759  TIP3      3693            0.0000000000
     24548      3840  TIP3      OH2            25.1472742298       -4.1954928807      -26.1383882964  TIP3      3694            0.0000000000
     24549      3840  TIP3      H1             24.4189197435       -4.8282615159      -26.0718869735  TIP3      3694            0.0000000000
     24550      3840  TIP3      H2             25.9314841462       -4.7755288586      -26.0217168793  TIP3      3694            0.0000000000
     24551      3841  TIP3      OH2            23.3285363536       -7.5182975531      -42.6000804792  TIP3      3695            0.0000000000
     24552      3841  TIP3      H1             23.8531658125       -7.9710893560      -41.9047250804  TIP3      3695            0.0000000000
     24553      3841  TIP3      H2             22.4096394982       -7.5707646148      -42.2913375336  TIP3      3695            0.0000000000
     24554      3842  TIP3      OH2            22.7806851291       -5.6390973132      -37.6408050560  TIP3      3696            0.0000000000
     24555      3842  TIP3      H1             23.0244661161       -6.5440901421      -37.3208047490  TIP3      3696            0.0000000000
     24556      3842  TIP3      H2             23.4934778888       -5.4729573904      -38.2804903170  TIP3      3696            0.0000000000
     24557      3843  TIP3      OH2            23.7784957573       -5.0458547427      -31.9021989110  TIP3      3697            0.0000000000
     24558      3843  TIP3      H1             24.7605837614       -4.9793932371      -31.8265855672  TIP3      3697            0.0000000000
     24559      3843  TIP3      H2             23.5706409859       -4.9659989229      -30.9488038485  TIP3      3697            0.0000000000
     24560      3844  TIP3      OH2            23.7979380622       -4.4823811387      -29.3131782805  TIP3      3698            0.0000000000
     24561      3844  TIP3      H1             23.1501645062       -4.0944211498      -28.6875927198  TIP3      3698            0.0000000000
     24562      3844  TIP3      H2             24.3081875818       -3.6698112899      -29.5570191151  TIP3      3698            0.0000000000
     24563      3845  TIP3      OH2             7.7014299883       -6.4012420165      -25.8171245764  TIP3      3699            0.0000000000
     24564      3845  TIP3      H1              8.6028282311       -6.4442626885      -25.4358160993  TIP3      3699            0.0000000000
     24565      3845  TIP3      H2              7.3785138997       -7.2847498924      -25.5748642582  TIP3      3699            0.0000000000
     24566      3846  TIP3      OH2            26.3600141806      -10.3314796612      -23.5871488989  TIP3      3700            0.0000000000
     24567      3846  TIP3      H1             26.6677683437      -11.1240900702      -24.0742767080  TIP3      3700            0.0000000000
     24568      3846  TIP3      H2             26.2529845241       -9.7172110144      -24.3451204537  TIP3      3700            0.0000000000
     24569      3847  TIP3      OH2            23.3069224136       -8.3061236686      -37.0675133995  TIP3      3701            0.0000000000
     24570      3847  TIP3      H1             23.5986880762       -8.6867059394      -36.2147950495  TIP3      3701            0.0000000000
     24571      3847  TIP3      H2             23.1351103283       -9.0950776841      -37.6081604466  TIP3      3701            0.0000000000
     24572      3848  TIP3      OH2             9.3149099579       -7.8317846311      -32.1054093713  TIP3      3702            0.0000000000
     24573      3848  TIP3      H1              9.6597400380       -8.7448856333      -32.2546134353  TIP3      3702            0.0000000000
     24574      3848  TIP3      H2             10.1111006589       -7.2762126450      -32.2065356800  TIP3      3702            0.0000000000
     24575      3849  TIP3      OH2             7.6024465257       -4.7273286472      -31.5755110669  TIP3      3703            0.0000000000
     24576      3849  TIP3      H1              8.2015323200       -5.2564054491      -32.1283422971  TIP3      3703            0.0000000000
     24577      3849  TIP3      H2              8.1364452125       -3.9220647655      -31.5165212414  TIP3      3703            0.0000000000
     24578      3850  TIP3      OH2            25.8368010845       -9.0112208183      -25.9478016581  TIP3      3704            0.0000000000
     24579      3850  TIP3      H1             25.0208604637       -8.5518120594      -26.2552491762  TIP3      3704            0.0000000000
     24580      3850  TIP3      H2             25.7841947456       -9.7973429970      -26.5341647891  TIP3      3704            0.0000000000
     24581      3851  TIP3      OH2            25.2239609173       -8.5051334674      -40.7911096659  TIP3      3705            0.0000000000
     24582      3851  TIP3      H1             25.4493441710       -9.1720671675      -41.4478891965  TIP3      3705            0.0000000000
     24583      3851  TIP3      H2             26.0833311509       -8.0537827209      -40.6144229598  TIP3      3705            0.0000000000
     24584      3852  TIP3      OH2             7.8662182351       -8.8534710375      -37.8301371962  TIP3      3706            0.0000000000
     24585      3852  TIP3      H1              6.9922158028       -8.5731715825      -37.5382468186  TIP3      3706            0.0000000000
     24586      3852  TIP3      H2              7.9368722124       -8.4179254335      -38.7115110132  TIP3      3706            0.0000000000
     24587      3853  TIP3      OH2            22.8155974491        6.3965200855      -35.4604163412  TIP3      3707            0.0000000000
     24588      3853  TIP3      H1             23.5433388226        6.2242908623      -36.0950092794  TIP3      3707            0.0000000000
     24589      3853  TIP3      H2             23.3030603975        6.8730864712      -34.7685237188  TIP3      3707            0.0000000000
     24590      3854  TIP3      OH2             7.5871020684       -9.9650429619      -29.5739061629  TIP3      3708            0.0000000000
     24591      3854  TIP3      H1              7.0383643766      -10.2160877687      -28.8116624087  TIP3      3708            0.0000000000
     24592      3854  TIP3      H2              7.0554780554       -9.2985240445      -30.0465912077  TIP3      3708            0.0000000000
     24593      3855  TIP3      OH2            10.1488039439        3.1631533382      -25.3154183812  TIP3      3709            0.0000000000
     24594      3855  TIP3      H1              9.4637003923        3.2826415517      -25.9890134308  TIP3      3709            0.0000000000
     24595      3855  TIP3      H2              9.6781772939        2.7530051695      -24.5797993123  TIP3      3709            0.0000000000
     24596      3856  TIP3      OH2            12.9205546063        4.6959690195      -28.8429999608  TIP3      3710            0.0000000000
     24597      3856  TIP3      H1             12.8500835948        5.6102562918      -29.2038658942  TIP3      3710            0.0000000000
     24598      3856  TIP3      H2             13.8954060950        4.5628725571      -28.9292254109  TIP3      3710            0.0000000000
     24599      3857  TIP3      OH2            16.8542705499        6.1327872181      -26.1309214239  TIP3      3711            0.0000000000
     24600      3857  TIP3      H1             17.0980864271        5.7098420648      -25.2816927451  TIP3      3711            0.0000000000
     24601      3857  TIP3      H2             17.7573884984        6.3275734160      -26.4788678154  TIP3      3711            0.0000000000
     24602      3858  TIP3      OH2            19.3029987399        6.9428900851      -26.9188173204  TIP3      3712            0.0000000000
     24603      3858  TIP3      H1             20.0899049833        7.0346973783      -27.4688139561  TIP3      3712            0.0000000000
     24604      3858  TIP3      H2             19.5114817979        7.4596920651      -26.1246343613  TIP3      3712            0.0000000000
     24605      3859  TIP3      OH2            24.9078946635      -10.7806818790      -27.7659949316  TIP3      3713            0.0000000000
     24606      3859  TIP3      H1             24.0961013712      -10.4801124321      -28.1982647146  TIP3      3713            0.0000000000
     24607      3859  TIP3      H2             25.0352650396      -11.6977657348      -28.1129180471  TIP3      3713            0.0000000000
     24608      3860  TIP3      OH2            10.2416568528        7.7138628131      -29.2347946147  TIP3      3714            0.0000000000
     24609      3860  TIP3      H1              9.5171587506        8.1644828322      -29.7104983368  TIP3      3714            0.0000000000
     24610      3860  TIP3      H2              9.9489182196        7.8642750618      -28.3134168434  TIP3      3714            0.0000000000
     24611      3861  TIP3      OH2            12.6456101907        7.0863395774      -30.1349393690  TIP3      3715            0.0000000000
     24612      3861  TIP3      H1             11.7136996054        7.3041773441      -29.8668947037  TIP3      3715            0.0000000000
     24613      3861  TIP3      H2             12.7713201552        7.7271439791      -30.8597963066  TIP3      3715            0.0000000000
     24614      3862  TIP3      OH2            17.5076272399        6.7065788721      -30.8152038760  TIP3      3716            0.0000000000
     24615      3862  TIP3      H1             16.9945964177        7.1054146639      -31.5310422504  TIP3      3716            0.0000000000
     24616      3862  TIP3      H2             17.5656694295        7.4533393877      -30.1794241385  TIP3      3716            0.0000000000
     24617      3863  TIP3      OH2            19.6096595864        5.5585469778      -29.5653320244  TIP3      3717            0.0000000000
     24618      3863  TIP3      H1             18.9401861792        5.9173187644      -30.1895662049  TIP3      3717            0.0000000000
     24619      3863  TIP3      H2             20.2948936962        6.2393791151      -29.6651788515  TIP3      3717            0.0000000000
     24620      3864  TIP3      OH2            22.2734713041        6.9011950379      -29.7690320471  TIP3      3718            0.0000000000
     24621      3864  TIP3      H1             22.5684154926        7.7021564553      -30.2383452182  TIP3      3718            0.0000000000
     24622      3864  TIP3      H2             22.4797061741        6.2414374670      -30.4735980773  TIP3      3718            0.0000000000
     24623      3865  TIP3      OH2            10.0084571738        6.0164578782      -32.2671506854  TIP3      3719            0.0000000000
     24624      3865  TIP3      H1              9.8561980010        5.3815377990      -31.5402004678  TIP3      3719            0.0000000000
     24625      3865  TIP3      H2             10.9418339865        5.8151125855      -32.5310214722  TIP3      3719            0.0000000000
     24626      3866  TIP3      OH2            12.2946084526        5.5063554324      -33.5377389192  TIP3      3720            0.0000000000
     24627      3866  TIP3      H1             12.0262182819        4.5715243510      -33.6741714662  TIP3      3720            0.0000000000
     24628      3866  TIP3      H2             13.0842431741        5.3506684811      -32.9761039560  TIP3      3720            0.0000000000
     24629      3867  TIP3      OH2            14.3735089944        4.9461365283      -31.9586067592  TIP3      3721            0.0000000000
     24630      3867  TIP3      H1             14.6601507547        4.0189812645      -32.0630613364  TIP3      3721            0.0000000000
     24631      3867  TIP3      H2             14.5601084899        5.1111376466      -31.0182072216  TIP3      3721            0.0000000000
     24632      3868  TIP3      OH2            17.3646673614       -9.5310460883      -33.1356729513  TIP3      3722            0.0000000000
     24633      3868  TIP3      H1             16.5796511246      -10.0299700884      -32.8099042917  TIP3      3722            0.0000000000
     24634      3868  TIP3      H2             17.7693213815      -10.1679923542      -33.7381102807  TIP3      3722            0.0000000000
     24635      3869  TIP3      OH2            23.1271394088      -10.8403130613      -33.3142196659  TIP3      3723            0.0000000000
     24636      3869  TIP3      H1             23.7608146484      -10.2489538093      -33.7878971814  TIP3      3723            0.0000000000
     24637      3869  TIP3      H2             22.2420501247      -10.4641570325      -33.5662966820  TIP3      3723            0.0000000000
     24638      3870  TIP3      OH2            24.7327610700       -9.6722590480      -35.1925845751  TIP3      3724            0.0000000000
     24639      3870  TIP3      H1             25.4651973889      -10.1721848421      -35.5807930703  TIP3      3724            0.0000000000
     24640      3870  TIP3      H2             25.1845710030       -8.7925356326      -35.0746181481  TIP3      3724            0.0000000000
     24641      3871  TIP3      OH2            10.2417852326      -10.7568672224      -35.2978321187  TIP3      3725            0.0000000000
     24642      3871  TIP3      H1              9.4139439144      -10.8214680188      -35.8229742046  TIP3      3725            0.0000000000
     24643      3871  TIP3      H2             10.6831331973      -11.6042419854      -35.5249393651  TIP3      3725            0.0000000000
     24644      3872  TIP3      OH2             8.8325126369      -10.7705690242      -39.6883678218  TIP3      3726            0.0000000000
     24645      3872  TIP3      H1              9.4209531568      -10.1504667626      -40.1757149350  TIP3      3726            0.0000000000
     24646      3872  TIP3      H2              8.6180031750      -10.2506391017      -38.8782787184  TIP3      3726            0.0000000000
     24647      3873  TIP3      OH2            14.7896860100      -10.8270947228      -35.4830816429  TIP3      3727            0.0000000000
     24648      3873  TIP3      H1             15.6906567875      -10.8451469902      -35.8507624109  TIP3      3727            0.0000000000
     24649      3873  TIP3      H2             14.9160232128      -10.5242521131      -34.5648724782  TIP3      3727            0.0000000000
     24650      3874  TIP3      OH2            20.5853785150      -10.1394786596      -34.0850789748  TIP3      3728            0.0000000000
     24651      3874  TIP3      H1             20.4263659080      -10.0244528534      -35.0274800712  TIP3      3728            0.0000000000
     24652      3874  TIP3      H2             20.1421088253      -11.0066745769      -33.9109761965  TIP3      3728            0.0000000000
     24653      3875  TIP3      OH2            21.7974286154      -10.3071030193      -38.8084379325  TIP3      3729            0.0000000000
     24654      3875  TIP3      H1             21.0191612242       -9.7420406108      -38.8401944037  TIP3      3729            0.0000000000
     24655      3875  TIP3      H2             21.4382364373      -11.0825848305      -38.3236384231  TIP3      3729            0.0000000000
     24656      3876  TIP3      OH2             9.1263591428        5.5207579728      -39.1174130950  TIP3      3730            0.0000000000
     24657      3876  TIP3      H1              8.1828974892        5.6004999852      -39.3897348403  TIP3      3730            0.0000000000
     24658      3876  TIP3      H2              9.3829265377        6.4493057791      -39.2895535447  TIP3      3730            0.0000000000
     24659      3877  TIP3      OH2            10.5930108792       -9.3876754524      -41.2261722532  TIP3      3731            0.0000000000
     24660      3877  TIP3      H1             11.4643411131       -9.7702233963      -41.3903897619  TIP3      3731            0.0000000000
     24661      3877  TIP3      H2             10.8369805209       -8.4908255480      -40.9439977196  TIP3      3731            0.0000000000
     24662      3878  TIP3      OH2            15.6567347807       -8.0279761182      -38.6870882263  TIP3      3732            0.0000000000
     24663      3878  TIP3      H1             16.2419393815       -8.6452206012      -38.2135766044  TIP3      3732            0.0000000000
     24664      3878  TIP3      H2             15.9573201060       -7.2035370321      -38.2470186072  TIP3      3732            0.0000000000
     24665      3879  TIP3      OH2            18.0706701273        7.5696224677      -40.6309528833  TIP3      3733            0.0000000000
     24666      3879  TIP3      H1             18.9559631267        7.7006680214      -41.0075009602  TIP3      3733            0.0000000000
     24667      3879  TIP3      H2             17.9437664723        6.6349168024      -40.9125862667  TIP3      3733            0.0000000000
     24668      3880  TIP3      OH2            24.4761729372        5.7891896103      -37.4609447513  TIP3      3734            0.0000000000
     24669      3880  TIP3      H1             24.2175409456        5.1255490291      -38.1456657023  TIP3      3734            0.0000000000
     24670      3880  TIP3      H2             24.4064577344        6.6118877359      -37.9994222582  TIP3      3734            0.0000000000
     24671      3881  TIP3      OH2             9.9817987728       -9.8808759147      -26.1900367253  TIP3      3735            0.0000000000
     24672      3881  TIP3      H1              9.4811780659      -10.7081770682      -26.0341951438  TIP3      3735            0.0000000000
     24673      3881  TIP3      H2             10.7257860246       -9.9772575836      -25.5457796811  TIP3      3735            0.0000000000
     24674      3882  TIP3      OH2            11.7909907913      -10.4849199938      -24.2138336495  TIP3      3736            0.0000000000
     24675      3882  TIP3      H1             12.7373438932      -10.5877784827      -24.4344532023  TIP3      3736            0.0000000000
     24676      3882  TIP3      H2             11.6120968733      -11.3768049030      -23.8848969513  TIP3      3736            0.0000000000
     24677      3883  TIP3      OH2            11.0336574062        6.7611887512      -41.8871934802  TIP3      3737            0.0000000000
     24678      3883  TIP3      H1             10.1711669512        7.1962435383      -41.9694988604  TIP3      3737            0.0000000000
     24679      3883  TIP3      H2             10.8875732214        6.0141811273      -41.3053655822  TIP3      3737            0.0000000000
     24680      3884  TIP3      OH2            20.4159864965      -10.7695848327      -24.0930096014  TIP3      3738            0.0000000000
     24681      3884  TIP3      H1             20.1245361803      -11.2859564053      -23.3003321051  TIP3      3738            0.0000000000
     24682      3884  TIP3      H2             21.2028218697      -11.2832916690      -24.3299546328  TIP3      3738            0.0000000000
     24683      3885  TIP3      OH2            23.8793962154        4.9533869739      -25.6306895302  TIP3      3739            0.0000000000
     24684      3885  TIP3      H1             23.2547129780        4.7884137954      -26.3770696259  TIP3      3739            0.0000000000
     24685      3885  TIP3      H2             23.6879997677        5.8952842804      -25.4799218208  TIP3      3739            0.0000000000
     24686      3886  TIP3      OH2            29.1541732872       -2.2177622689      -30.1392671435  TIP3      3740            0.0000000000
     24687      3886  TIP3      H1             29.5515590331       -3.0970738675      -30.2194356768  TIP3      3740            0.0000000000
     24688      3886  TIP3      H2             29.7957489082       -1.7022996931      -30.6930278976  TIP3      3740            0.0000000000
     24689      3887  TIP3      OH2            26.5036476708       -4.7376638048      -36.5212923242  TIP3      3741            0.0000000000
     24690      3887  TIP3      H1             26.3662502671       -3.7834562022      -36.6624224811  TIP3      3741            0.0000000000
     24691      3887  TIP3      H2             25.7567852063       -5.1020818035      -37.0199117304  TIP3      3741            0.0000000000
     24692      3888  TIP3      OH2            27.7204969238       -1.6737100559      -34.7511738109  TIP3      3742            0.0000000000
     24693      3888  TIP3      H1             27.7964466067       -2.6237011072      -34.5327092787  TIP3      3742            0.0000000000
     24694      3888  TIP3      H2             28.6337566965       -1.3580241052      -34.6660810174  TIP3      3742            0.0000000000
     24695      3889  TIP3      OH2            28.0460164765       -4.3318757765      -33.7516680427  TIP3      3743            0.0000000000
     24696      3889  TIP3      H1             28.9130796543       -4.4310461988      -33.3180858266  TIP3      3743            0.0000000000
     24697      3889  TIP3      H2             28.2157751910       -4.6738347092      -34.6486004226  TIP3      3743            0.0000000000
     24698      3890  TIP3      OH2            27.7153725750        1.2398920734      -38.2338222387  TIP3      3744            0.0000000000
     24699      3890  TIP3      H1             27.6254396415        1.5910984620      -39.1386868037  TIP3      3744            0.0000000000
     24700      3890  TIP3      H2             27.5215820568        2.0292466113      -37.6817917133  TIP3      3744            0.0000000000
     24701      3891  TIP3      OH2            26.9138567507        0.3535393329      -28.8452586269  TIP3      3745            0.0000000000
     24702      3891  TIP3      H1             26.3779986011        0.1774982414      -29.6358867631  TIP3      3745            0.0000000000
     24703      3891  TIP3      H2             26.9182125103       -0.5260563974      -28.3973121002  TIP3      3745            0.0000000000
     24704      3892  TIP3      OH2            26.7729726265        3.0935330479      -32.0992884655  TIP3      3746            0.0000000000
     24705      3892  TIP3      H1             27.7110842671        3.1044856234      -32.3297519145  TIP3      3746            0.0000000000
     24706      3892  TIP3      H2             26.8354909619        3.5602391325      -31.2371460326  TIP3      3746            0.0000000000
     24707      3893  TIP3      OH2            29.1818253123        1.7749735882      -28.5313631329  TIP3      3747            0.0000000000
     24708      3893  TIP3      H1             29.3521152305        1.3368971564      -27.6710294633  TIP3      3747            0.0000000000
     24709      3893  TIP3      H2             28.2688447992        1.4596262113      -28.6995849528  TIP3      3747            0.0000000000
     24710      3894  TIP3      OH2            30.0901321484       -4.7844407601      -28.6147245675  TIP3      3748            0.0000000000
     24711      3894  TIP3      H1             30.4880254448       -5.1055971404      -27.7778672125  TIP3      3748            0.0000000000
     24712      3894  TIP3      H2             29.5281603604       -5.5186037443      -28.8926363963  TIP3      3748            0.0000000000
     24713      3895  TIP3      OH2            26.1988343242       -7.4659880576      -35.0923102171  TIP3      3749            0.0000000000
     24714      3895  TIP3      H1             26.9569038802       -7.3829075785      -34.4814407647  TIP3      3749            0.0000000000
     24715      3895  TIP3      H2             26.6010968962       -7.6306315430      -35.9662572232  TIP3      3749            0.0000000000
     24716      3896  TIP3      OH2            27.3961122077       -7.0690837743      -39.8984568044  TIP3      3750            0.0000000000
     24717      3896  TIP3      H1             28.2296384839       -6.8036747627      -40.3156663813  TIP3      3750            0.0000000000
     24718      3896  TIP3      H2             26.9013850040       -6.2356164238      -39.9446488355  TIP3      3750            0.0000000000
     24719      3897  TIP3      OH2            28.9427106830       -5.7410170591      -36.2028210772  TIP3      3751            0.0000000000
     24720      3897  TIP3      H1             27.9606943020       -5.6764297925      -36.2811999017  TIP3      3751            0.0000000000
     24721      3897  TIP3      H2             29.1412165954       -6.5164528745      -35.6383010992  TIP3      3751            0.0000000000
     24722      3898  TIP3      OH2            29.4295375343        0.6724077014      -26.0904978539  TIP3      3752            0.0000000000
     24723      3898  TIP3      H1             29.8306542574       -0.1988360172      -26.2895456336  TIP3      3752            0.0000000000
     24724      3898  TIP3      H2             28.9038426783        0.3810543800      -25.3144129584  TIP3      3752            0.0000000000
     24725      3899  TIP3      OH2            27.0226690938       -1.9400005594      -27.4443196922  TIP3      3753            0.0000000000
     24726      3899  TIP3      H1             27.1289700490       -2.3912180433      -26.5741755754  TIP3      3753            0.0000000000
     24727      3899  TIP3      H2             27.3093704500       -2.6231899450      -28.0674702010  TIP3      3753            0.0000000000
     24728      3900  TIP3      OH2            28.3149413922       -2.0326850297      -41.5248315136  TIP3      3754            0.0000000000
     24729      3900  TIP3      H1             28.7780971418       -1.5099410429      -40.8377441903  TIP3      3754            0.0000000000
     24730      3900  TIP3      H2             27.3948681545       -1.9351714635      -41.2334989665  TIP3      3754            0.0000000000
     24731      3901  TIP3      OH2            28.6276513777       -7.6380726650      -28.3170025013  TIP3      3755            0.0000000000
     24732      3901  TIP3      H1             27.7409799966       -7.3971105374      -28.6254939712  TIP3      3755            0.0000000000
     24733      3901  TIP3      H2             28.4597424627       -8.3766747330      -27.7090749521  TIP3      3755            0.0000000000
     24734      3902  TIP3      OH2            28.1712914959        4.2476590794      -30.0761432338  TIP3      3756            0.0000000000
     24735      3902  TIP3      H1             28.9626224327        3.6826274332      -30.1704144393  TIP3      3756            0.0000000000
     24736      3902  TIP3      H2             28.4654972994        4.8251915788      -29.3433710914  TIP3      3756            0.0000000000
     24737      3903  TIP3      OH2            29.4904908078       -0.5850742517      -39.5623155260  TIP3      3757            0.0000000000
     24738      3903  TIP3      H1             28.7215096197       -0.3012685744      -39.0327661515  TIP3      3757            0.0000000000
     24739      3903  TIP3      H2             30.1581666616        0.0306660485      -39.1887082784  TIP3      3757            0.0000000000
     24740      3904  TIP3      OH2            28.4065429993       -4.7573410513      -41.8448421551  TIP3      3758            0.0000000000
     24741      3904  TIP3      H1             28.4264895294       -3.9337688306      -41.3272663359  TIP3      3758            0.0000000000
     24742      3904  TIP3      H2             27.8704915184       -4.4811745094      -42.6051846426  TIP3      3758            0.0000000000
     24743      3905  TIP3      OH2            28.9324229417      -10.2018947678      -32.1875501422  TIP3      3759            0.0000000000
     24744      3905  TIP3      H1             29.0751912302      -10.1439874371      -33.1520405608  TIP3      3759            0.0000000000
     24745      3905  TIP3      H2             28.6475657734      -11.1278280238      -32.0912506118  TIP3      3759            0.0000000000
     24746      3906  TIP3      OH2            27.6207065744        3.6107214905      -36.7745831587  TIP3      3760            0.0000000000
     24747      3906  TIP3      H1             27.3555962325        4.2430111346      -37.4746064102  TIP3      3760            0.0000000000
     24748      3906  TIP3      H2             28.5828709172        3.6242184853      -36.8653406552  TIP3      3760            0.0000000000
     24749      3907  TIP3      OH2            27.3524307275        6.6057677651      -25.1504648171  TIP3      3761            0.0000000000
     24750      3907  TIP3      H1             28.0851187424        6.1344648034      -24.6990887760  TIP3      3761            0.0000000000
     24751      3907  TIP3      H2             26.7473906000        5.8781451844      -25.3935899553  TIP3      3761            0.0000000000
     24752      3908  TIP3      OH2            27.5012610938       -2.8243722116      -24.9236126112  TIP3      3762            0.0000000000
     24753      3908  TIP3      H1             27.7978937266       -3.6926808756      -24.6429362890  TIP3      3762            0.0000000000
     24754      3908  TIP3      H2             28.2436684691       -2.2434824540      -24.6267716417  TIP3      3762            0.0000000000
     24755      3909  TIP3      OH2            29.1202271792       -7.1366902266      -24.8346630990  TIP3      3763            0.0000000000
     24756      3909  TIP3      H1             28.9802076814       -7.9656306185      -25.3449289368  TIP3      3763            0.0000000000
     24757      3909  TIP3      H2             29.3291677177       -7.4982794664      -23.9532736580  TIP3      3763            0.0000000000
     24758      3910  TIP3      OH2            27.5793066509        1.8504184752      -41.2117110645  TIP3      3764            0.0000000000
     24759      3910  TIP3      H1             28.5364401631        1.9773086557      -41.0929479731  TIP3      3764            0.0000000000
     24760      3910  TIP3      H2             27.5030974827        1.7230696682      -42.1734730972  TIP3      3764            0.0000000000
     24761      3911  TIP3      OH2            26.7983610760        6.7683525345      -36.5964120077  TIP3      3765            0.0000000000
     24762      3911  TIP3      H1             25.9520071907        6.3549645428      -36.8808005437  TIP3      3765            0.0000000000
     24763      3911  TIP3      H2             26.8675768609        6.3673625744      -35.7047337210  TIP3      3765            0.0000000000
     24764      3912  TIP3      OH2            26.5913732656        5.5489621563      -34.2196200104  TIP3      3766            0.0000000000
     24765      3912  TIP3      H1             26.5679781427        4.5945377492      -34.3924178389  TIP3      3766            0.0000000000
     24766      3912  TIP3      H2             27.2468318349        5.6071062877      -33.4934623092  TIP3      3766            0.0000000000
     24767      3913  TIP3      OH2            27.1242267395       -1.4354624970      -31.6787033351  TIP3      3767            0.0000000000
     24768      3913  TIP3      H1             27.6797004665       -1.7895504835      -32.3996012788  TIP3      3767            0.0000000000
     24769      3913  TIP3      H2             27.7869648077       -1.3114160206      -30.9646139226  TIP3      3767            0.0000000000
     24770      3914  TIP3      OH2            26.7919071667       -6.2890472955      -25.8770033705  TIP3      3768            0.0000000000
     24771      3914  TIP3      H1             27.6977280042       -6.3955417380      -25.5161294736  TIP3      3768            0.0000000000
     24772      3914  TIP3      H2             26.3389132617       -7.0852930008      -25.5307806869  TIP3      3768            0.0000000000
     24773      3915  TIP3      OH2            28.0727433832       -7.4718324865      -33.0240873937  TIP3      3769            0.0000000000
     24774      3915  TIP3      H1             28.2459882789       -8.3755509303      -32.6795782009  TIP3      3769            0.0000000000
     24775      3915  TIP3      H2             28.9411996228       -7.0646876886      -32.9483616306  TIP3      3769            0.0000000000
     24776      3916  TIP3      OH2            26.3752264020       -4.9772205918      -31.5408742143  TIP3      3770            0.0000000000
     24777      3916  TIP3      H1             26.7744481136       -5.1855631445      -32.4074733528  TIP3      3770            0.0000000000
     24778      3916  TIP3      H2             27.0471201282       -4.3595904953      -31.2136567999  TIP3      3770            0.0000000000
     24779      3917  TIP3      OH2            26.6237891042       -8.6396168213      -37.6664541730  TIP3      3771            0.0000000000
     24780      3917  TIP3      H1             25.8237179053       -9.0946888124      -37.9422441232  TIP3      3771            0.0000000000
     24781      3917  TIP3      H2             26.8354168122       -8.0991917281      -38.4512402233  TIP3      3771            0.0000000000
     24782      3918  TIP3      OH2            26.7482038626       -9.6973020304      -29.5372009279  TIP3      3772            0.0000000000
     24783      3918  TIP3      H1             26.0634231653      -10.0408779011      -28.9366673415  TIP3      3772            0.0000000000
     24784      3918  TIP3      H2             26.2357136632       -9.2782336711      -30.2612098947  TIP3      3772            0.0000000000
     24785      3919  TIP3      OH2            28.7417354356        3.0318038934      -24.5604869806  TIP3      3773            0.0000000000
     24786      3919  TIP3      H1             28.6492749157        2.5175109002      -25.3839883877  TIP3      3773            0.0000000000
     24787      3919  TIP3      H2             28.2073336192        3.8006517386      -24.7782497559  TIP3      3773            0.0000000000
     24788      3920  TIP3      OH2            28.9658867851        6.7666773154      -28.8648887057  TIP3      3774            0.0000000000
     24789      3920  TIP3      H1             28.6848045084        7.3950116611      -29.5542600018  TIP3      3774            0.0000000000
     24790      3920  TIP3      H2             28.9061375443        7.3196670765      -28.0769491983  TIP3      3774            0.0000000000
     24791      3921  TIP3      OH2            28.6506177225        5.6642676133      -32.4827838881  TIP3      3775            0.0000000000
     24792      3921  TIP3      H1             28.6756376502        5.0846053103      -31.6904292549  TIP3      3775            0.0000000000
     24793      3921  TIP3      H2             29.5747949041        5.6400354051      -32.7818701800  TIP3      3775            0.0000000000
     24794      3922  TIP3      OH2            28.8417455750       -9.9886392389      -34.9322820325  TIP3      3776            0.0000000000
     24795      3922  TIP3      H1             27.9221849154       -9.9526642842      -35.2293168738  TIP3      3776            0.0000000000
     24796      3922  TIP3      H2             29.2551336749      -10.4727949172      -35.6911764814  TIP3      3776            0.0000000000
     24797      3923  TIP3      OH2            27.6130802827      -10.4695375848      -40.1712256374  TIP3      3777            0.0000000000
     24798      3923  TIP3      H1             28.3435488624       -9.9119244584      -40.5238478661  TIP3      3777            0.0000000000
     24799      3923  TIP3      H2             27.5117018364      -10.1029483591      -39.2766983516  TIP3      3777            0.0000000000
     24800      3924  TIP3      OH2            27.4503034962        5.1113635775      -39.0503051577  TIP3      3778            0.0000000000
     24801      3924  TIP3      H1             26.9980304782        5.0971504929      -39.9128292947  TIP3      3778            0.0000000000
     24802      3924  TIP3      H2             27.3738454032        6.0636963907      -38.8896023550  TIP3      3778            0.0000000000
     24803      3925  TIP3      OH2            29.8272695264       -9.2080135968      -41.1269967579  TIP3      3779            0.0000000000
     24804      3925  TIP3      H1             30.5098717132       -9.7010215177      -41.6242348298  TIP3      3779            0.0000000000
     24805      3925  TIP3      H2             30.3462797211       -8.4486417828      -40.7881560738  TIP3      3779            0.0000000000
     24806      3926  TIP3      OH2            29.1230656125       -9.8950394365      -25.6016965758  TIP3      3780            0.0000000000
     24807      3926  TIP3      H1             28.6223087700      -10.7161291181      -25.4826601467  TIP3      3780            0.0000000000
     24808      3926  TIP3      H2             30.0303576353      -10.2328367422      -25.6014889663  TIP3      3780            0.0000000000
     24809      3927  TIP3      OH2            29.4054520755        6.1200854074      -41.9605322139  TIP3      3781            0.0000000000
     24810      3927  TIP3      H1             28.9874121752        6.9928056167      -41.8095254461  TIP3      3781            0.0000000000
     24811      3927  TIP3      H2             30.3474918808        6.3208111119      -41.9210317088  TIP3      3781            0.0000000000
     24812      3928  TIP3      OH2           -18.0396075886       17.8592805058      -35.6844638157  TIP3      3782            0.0000000000
     24813      3928  TIP3      H1            -17.9988916740       18.8104210449      -35.4566573472  TIP3      3782            0.0000000000
     24814      3928  TIP3      H2            -18.9017570454       17.7903384041      -36.1269639566  TIP3      3782            0.0000000000
     24815      3929  TIP3      OH2           -19.4543080503       16.3134419041      -32.4193022241  TIP3      3783            0.0000000000
     24816      3929  TIP3      H1            -19.5142608556       16.0918874694      -31.4593939056  TIP3      3783            0.0000000000
     24817      3929  TIP3      H2            -20.3776518575       16.4030333472      -32.6759198583  TIP3      3783            0.0000000000
     24818      3930  TIP3      OH2           -27.0863192448       16.7577398372      -30.4194007414  TIP3      3784            0.0000000000
     24819      3930  TIP3      H1            -26.9959888754       16.2930411901      -29.5699353399  TIP3      3784            0.0000000000
     24820      3930  TIP3      H2            -26.2396506266       16.5183129573      -30.8583054778  TIP3      3784            0.0000000000
     24821      3931  TIP3      OH2           -16.1873346942       19.2152929950      -33.8617865101  TIP3      3785            0.0000000000
     24822      3931  TIP3      H1            -16.3403660239       18.5756570332      -33.1487147080  TIP3      3785            0.0000000000
     24823      3931  TIP3      H2            -16.1026376620       20.0573137037      -33.3997529716  TIP3      3785            0.0000000000
     24824      3932  TIP3      OH2           -26.4267651865       21.2577440766      -32.3270574677  TIP3      3786            0.0000000000
     24825      3932  TIP3      H1            -26.6477888451       20.3754025667      -32.6922938500  TIP3      3786            0.0000000000
     24826      3932  TIP3      H2            -25.4640549316       21.1460395061      -32.3270850973  TIP3      3786            0.0000000000
     24827      3933  TIP3      OH2           -29.4001550879       14.3957423995      -37.3367315252  TIP3      3787            0.0000000000
     24828      3933  TIP3      H1            -29.8862130919       15.1579541257      -37.6783493404  TIP3      3787            0.0000000000
     24829      3933  TIP3      H2            -30.0898717408       13.9652198835      -36.7789064464  TIP3      3787            0.0000000000
     24830      3934  TIP3      OH2           -29.6029392866       16.5781595256      -34.2624896693  TIP3      3788            0.0000000000
     24831      3934  TIP3      H1            -29.2620237969       15.6756450994      -34.0535946816  TIP3      3788            0.0000000000
     24832      3934  TIP3      H2            -28.9355713725       16.9148975490      -34.8751184570  TIP3      3788            0.0000000000
     24833      3935  TIP3      OH2           -18.9618881276       24.5176212373      -34.0710536925  TIP3      3789            0.0000000000
     24834      3935  TIP3      H1            -18.1418747106       24.1443141492      -34.4717381104  TIP3      3789            0.0000000000
     24835      3935  TIP3      H2            -19.0961171542       23.8748488260      -33.3669433557  TIP3      3789            0.0000000000
     24836      3936  TIP3      OH2           -21.3495002622       19.5614023324      -31.4031392561  TIP3      3790            0.0000000000
     24837      3936  TIP3      H1            -21.0066934627       19.3389985264      -32.2727800281  TIP3      3790            0.0000000000
     24838      3936  TIP3      H2            -20.5243706678       19.5500560078      -30.8729389795  TIP3      3790            0.0000000000
     24839      3937  TIP3      OH2           -12.8046755792       10.9515883714      -31.4441802328  TIP3      3791            0.0000000000
     24840      3937  TIP3      H1            -12.5634487225       11.3816573366      -30.6019857801  TIP3      3791            0.0000000000
     24841      3937  TIP3      H2            -11.9309956830       10.6438975667      -31.7333666966  TIP3      3791            0.0000000000
     24842      3938  TIP3      OH2           -17.6634199370       13.9037420889      -31.0747633195  TIP3      3792            0.0000000000
     24843      3938  TIP3      H1            -17.4534585939       12.9834077469      -30.8549908616  TIP3      3792            0.0000000000
     24844      3938  TIP3      H2            -18.0847188695       13.7954793567      -31.9449436237  TIP3      3792            0.0000000000
     24845      3939  TIP3      OH2           -24.4637465739       11.4147903702      -34.4187878068  TIP3      3793            0.0000000000
     24846      3939  TIP3      H1            -24.4636652348       12.2725141911      -34.8980375083  TIP3      3793            0.0000000000
     24847      3939  TIP3      H2            -25.0219296847       10.8879428674      -35.0315528585  TIP3      3793            0.0000000000
     24848      3940  TIP3      OH2           -17.4045753395       11.6241357015      -35.6086861043  TIP3      3794            0.0000000000
     24849      3940  TIP3      H1            -16.6693618559       11.3243397750      -35.0064870607  TIP3      3794            0.0000000000
     24850      3940  TIP3      H2            -17.1097961631       12.5132631309      -35.8640599896  TIP3      3794            0.0000000000
     24851      3941  TIP3      OH2           -28.2349245725       14.3292315075      -33.7423186685  TIP3      3795            0.0000000000
     24852      3941  TIP3      H1            -27.5397772121       13.8794229906      -33.2309164625  TIP3      3795            0.0000000000
     24853      3941  TIP3      H2            -27.9939965603       13.9938142902      -34.6330650937  TIP3      3795            0.0000000000
     24854      3942  TIP3      OH2           -23.7497094074       16.1427369192      -33.9662770782  TIP3      3796            0.0000000000
     24855      3942  TIP3      H1            -22.8926415122       15.7072736379      -33.7946609749  TIP3      3796            0.0000000000
     24856      3942  TIP3      H2            -24.1903857370       15.3750276958      -34.3894001605  TIP3      3796            0.0000000000
     24857      3943  TIP3      OH2           -12.4680117764       12.0499594639      -28.7988628733  TIP3      3797            0.0000000000
     24858      3943  TIP3      H1            -12.7997823649       12.9277023941      -29.1193885861  TIP3      3797            0.0000000000
     24859      3943  TIP3      H2            -12.3414763684       12.2495104708      -27.8578346748  TIP3      3797            0.0000000000
     24860      3944  TIP3      OH2           -25.7373894330       10.8838474240      -30.3680529941  TIP3      3798            0.0000000000
     24861      3944  TIP3      H1            -25.8696423642       11.4917347661      -31.1270729302  TIP3      3798            0.0000000000
     24862      3944  TIP3      H2            -26.2954085058       11.3441597890      -29.6938290195  TIP3      3798            0.0000000000
     24863      3945  TIP3      OH2           -18.8233140825       20.3890518793      -36.7757307069  TIP3      3799            0.0000000000
     24864      3945  TIP3      H1            -18.8235984968       20.3334020072      -37.7484971804  TIP3      3799            0.0000000000
     24865      3945  TIP3      H2            -19.2535433396       21.2542061296      -36.6479729144  TIP3      3799            0.0000000000
     24866      3946  TIP3      OH2           -23.9021881170       18.5015355456      -30.2224319390  TIP3      3800            0.0000000000
     24867      3946  TIP3      H1            -24.4023648430       19.2788836403      -29.8946901157  TIP3      3800            0.0000000000
     24868      3946  TIP3      H2            -23.1671129556       18.9488797795      -30.6854646388  TIP3      3800            0.0000000000
     24869      3947  TIP3      OH2           -15.3717892785       11.0358211168      -33.8920771642  TIP3      3801            0.0000000000
     24870      3947  TIP3      H1            -15.8552514242       10.9172307449      -33.0494774845  TIP3      3801            0.0000000000
     24871      3947  TIP3      H2            -14.4465827262       11.0085669803      -33.5702776948  TIP3      3801            0.0000000000
     24872      3948  TIP3      OH2           -26.2301707856       12.6237964501      -32.5747149842  TIP3      3802            0.0000000000
     24873      3948  TIP3      H1            -25.6336580997       13.2732217308      -32.1341679083  TIP3      3802            0.0000000000
     24874      3948  TIP3      H2            -25.5985588074       12.2059871564      -33.2056155766  TIP3      3802            0.0000000000
     24875      3949  TIP3      OH2           -24.7907791916       20.9194853439      -29.3504127123  TIP3      3803            0.0000000000
     24876      3949  TIP3      H1            -24.8524157678       21.7847119814      -29.7880777045  TIP3      3803            0.0000000000
     24877      3949  TIP3      H2            -25.7304869295       20.7918804782      -29.0557439725  TIP3      3803            0.0000000000
     24878      3950  TIP3      OH2           -28.8397289159       20.2093431358      -38.6257984033  TIP3      3804            0.0000000000
     24879      3950  TIP3      H1            -28.8559465622       20.7906662477      -39.4240379042  TIP3      3804            0.0000000000
     24880      3950  TIP3      H2            -28.5781256650       20.8464814535      -37.9234938279  TIP3      3804            0.0000000000
     24881      3951  TIP3      OH2           -15.3700957122       21.7741294774      -31.9499073418  TIP3      3805            0.0000000000
     24882      3951  TIP3      H1            -16.3116417332       21.8370206498      -31.6737516008  TIP3      3805            0.0000000000
     24883      3951  TIP3      H2            -15.2113797097       22.6993426375      -32.1942900847  TIP3      3805            0.0000000000
     24884      3952  TIP3      OH2           -15.2461081298       10.5206969450      -30.1219152128  TIP3      3806            0.0000000000
     24885      3952  TIP3      H1            -16.0603284260       10.6805336563      -30.6454137647  TIP3      3806            0.0000000000
     24886      3952  TIP3      H2            -14.5576134082       10.8044405201      -30.7528254230  TIP3      3806            0.0000000000
     24887      3953  TIP3      OH2           -22.0719377409        8.3153180844      -32.7252053012  TIP3      3807            0.0000000000
     24888      3953  TIP3      H1            -22.4092866328        7.4519407249      -33.0212476998  TIP3      3807            0.0000000000
     24889      3953  TIP3      H2            -22.9233359057        8.7759093422      -32.5448936160  TIP3      3807            0.0000000000
     24890      3954  TIP3      OH2           -16.8429268034       23.5064423286      -35.3052103372  TIP3      3808            0.0000000000
     24891      3954  TIP3      H1            -16.4970648558       22.7400430409      -35.8190145697  TIP3      3808            0.0000000000
     24892      3954  TIP3      H2            -16.1617414770       24.1856531662      -35.4848254580  TIP3      3808            0.0000000000
     24893      3955  TIP3      OH2           -15.8805503221       21.4513748009      -36.7239083584  TIP3      3809            0.0000000000
     24894      3955  TIP3      H1            -15.9168795674       20.7864194699      -37.4436196012  TIP3      3809            0.0000000000
     24895      3955  TIP3      H2            -16.2069796733       20.8890470081      -36.0039529216  TIP3      3809            0.0000000000
     24896      3956  TIP3      OH2           -14.4451010689       20.1021943308      -28.0708854303  TIP3      3810            0.0000000000
     24897      3956  TIP3      H1            -14.4074938352       19.3451205859      -28.6983776691  TIP3      3810            0.0000000000
     24898      3956  TIP3      H2            -14.1770945748       20.8253395176      -28.6688781671  TIP3      3810            0.0000000000
     24899      3957  TIP3      OH2           -19.6941707656       17.1346800416      -38.2710174904  TIP3      3811            0.0000000000
     24900      3957  TIP3      H1            -20.2924465920       17.9030294215      -38.4205818121  TIP3      3811            0.0000000000
     24901      3957  TIP3      H2            -18.8410250498       17.4645989585      -38.6005119744  TIP3      3811            0.0000000000
     24902      3958  TIP3      OH2           -19.7968157218       16.0070004742      -40.9869591592  TIP3      3812            0.0000000000
     24903      3958  TIP3      H1            -19.1695760724       16.2047672757      -40.2517873073  TIP3      3812            0.0000000000
     24904      3958  TIP3      H2            -19.6558940064       15.0513312634      -41.0765358348  TIP3      3812            0.0000000000
     24905      3959  TIP3      OH2           -12.2888429257       16.7233887142      -29.7243818261  TIP3      3813            0.0000000000
     24906      3959  TIP3      H1            -12.9698467102       17.2948190282      -30.1266736321  TIP3      3813            0.0000000000
     24907      3959  TIP3      H2            -11.6109975417       16.7558571208      -30.4264266444  TIP3      3813            0.0000000000
     24908      3960  TIP3      OH2           -15.8138726419       17.0934939368      -37.0912531627  TIP3      3814            0.0000000000
     24909      3960  TIP3      H1            -16.6051468010       17.2888493108      -36.5300456518  TIP3      3814            0.0000000000
     24910      3960  TIP3      H2            -15.2869190044       16.5407948764      -36.4761564804  TIP3      3814            0.0000000000
     24911      3961  TIP3      OH2           -16.1730182189       15.4114384503      -28.2534247509  TIP3      3815            0.0000000000
     24912      3961  TIP3      H1            -16.3887379831       16.3106538067      -27.9491696543  TIP3      3815            0.0000000000
     24913      3961  TIP3      H2            -16.7262640005       15.3985112929      -29.0478607436  TIP3      3815            0.0000000000
     24914      3962  TIP3      OH2           -24.7447816774       17.8533631484      -35.6578561289  TIP3      3816            0.0000000000
     24915      3962  TIP3      H1            -24.9013245768       17.3447280238      -36.4881125795  TIP3      3816            0.0000000000
     24916      3962  TIP3      H2            -24.4087659099       17.1764457923      -35.0306510110  TIP3      3816            0.0000000000
     24917      3963  TIP3      OH2           -23.4057025092       20.8899279473      -32.8025832040  TIP3      3817            0.0000000000
     24918      3963  TIP3      H1            -23.2017549737       21.1981215501      -33.7075056051  TIP3      3817            0.0000000000
     24919      3963  TIP3      H2            -22.5592614013       20.6192385107      -32.4081732819  TIP3      3817            0.0000000000
     24920      3964  TIP3      OH2           -24.7137493102       16.3340508366      -31.4899362397  TIP3      3818            0.0000000000
     24921      3964  TIP3      H1            -24.3445440789       16.4094914967      -32.4050331035  TIP3      3818            0.0000000000
     24922      3964  TIP3      H2            -24.2653250538       17.0989714627      -31.0526781017  TIP3      3818            0.0000000000
     24923      3965  TIP3      OH2           -17.8383788789       21.9576578741      -31.0769574216  TIP3      3819            0.0000000000
     24924      3965  TIP3      H1            -18.3314362633       22.4235591997      -30.3874153942  TIP3      3819            0.0000000000
     24925      3965  TIP3      H2            -17.9825896567       21.0339074347      -30.7888458125  TIP3      3819            0.0000000000
     24926      3966  TIP3      OH2           -23.3920261606       21.1091865433      -27.1275940993  TIP3      3820            0.0000000000
     24927      3966  TIP3      H1            -24.1403350248       20.9548223628      -26.4903232338  TIP3      3820            0.0000000000
     24928      3966  TIP3      H2            -23.8655057441       20.9135648613      -27.9716752236  TIP3      3820            0.0000000000
     24929      3967  TIP3      OH2           -17.3796884115       16.2670778877      -39.3636088254  TIP3      3821            0.0000000000
     24930      3967  TIP3      H1            -16.7078270813       16.3595794081      -38.6536725165  TIP3      3821            0.0000000000
     24931      3967  TIP3      H2            -16.9490299181       16.7477902609      -40.1070987029  TIP3      3821            0.0000000000
     24932      3968  TIP3      OH2           -26.2995912395       16.1565742989      -27.7251379302  TIP3      3822            0.0000000000
     24933      3968  TIP3      H1            -26.3072368593       16.3809654293      -26.7658554303  TIP3      3822            0.0000000000
     24934      3968  TIP3      H2            -26.8238999019       16.9161764974      -28.0045455282  TIP3      3822            0.0000000000
     24935      3969  TIP3      OH2           -19.8543971874       23.1760443065      -36.4763093321  TIP3      3823            0.0000000000
     24936      3969  TIP3      H1            -19.4990446773       23.5566488535      -35.6590438196  TIP3      3823            0.0000000000
     24937      3969  TIP3      H2            -20.0127694925       23.9724710654      -37.0108500666  TIP3      3823            0.0000000000
     24938      3970  TIP3      OH2           -25.2500689793       23.1986215234      -26.3014992554  TIP3      3824            0.0000000000
     24939      3970  TIP3      H1            -25.5646944651       23.1802565356      -27.2265701222  TIP3      3824            0.0000000000
     24940      3970  TIP3      H2            -26.0503311260       22.8495093905      -25.8786316950  TIP3      3824            0.0000000000
     24941      3971  TIP3      OH2           -13.2477184133        8.0307566678      -39.3451966698  TIP3      3825            0.0000000000
     24942      3971  TIP3      H1            -14.2299018817        7.9837607743      -39.3968056604  TIP3      3825            0.0000000000
     24943      3971  TIP3      H2            -13.0861400395        8.8793511839      -39.7756834924  TIP3      3825            0.0000000000
     24944      3972  TIP3      OH2           -25.6224335302       16.5069569505      -37.7906493452  TIP3      3826            0.0000000000
     24945      3972  TIP3      H1            -26.0915921412       17.3053494825      -38.1423487721  TIP3      3826            0.0000000000
     24946      3972  TIP3      H2            -26.3143582712       15.8289396166      -37.8301791443  TIP3      3826            0.0000000000
     24947      3973  TIP3      OH2           -12.5153679187       22.5308518485      -41.7319203681  TIP3      3827            0.0000000000
     24948      3973  TIP3      H1            -12.1513881850       23.4363011252      -41.7828017813  TIP3      3827            0.0000000000
     24949      3973  TIP3      H2            -11.7091411522       22.0085949732      -41.5423452134  TIP3      3827            0.0000000000
     24950      3974  TIP3      OH2           -29.1089869194       19.3056019825      -29.0096851537  TIP3      3828            0.0000000000
     24951      3974  TIP3      H1            -29.1699856097       19.1727481855      -29.9731296336  TIP3      3828            0.0000000000
     24952      3974  TIP3      H2            -28.8882082196       18.3852644311      -28.7768945759  TIP3      3828            0.0000000000
     24953      3975  TIP3      OH2           -29.2105785071       22.0857497987      -32.4345455421  TIP3      3829            0.0000000000
     24954      3975  TIP3      H1            -28.5335344342       21.3868210979      -32.3395533402  TIP3      3829            0.0000000000
     24955      3975  TIP3      H2            -28.7062932388       22.8323677440      -32.0821066725  TIP3      3829            0.0000000000
     24956      3976  TIP3      OH2           -11.6884230347       22.5296377907      -26.6117106486  TIP3      3830            0.0000000000
     24957      3976  TIP3      H1            -11.8834993092       21.5867223416      -26.7702285734  TIP3      3830            0.0000000000
     24958      3976  TIP3      H2            -12.5222008668       22.7684750186      -26.1433328252  TIP3      3830            0.0000000000
     24959      3977  TIP3      OH2           -20.9000327637       22.0166785740      -27.3245467069  TIP3      3831            0.0000000000
     24960      3977  TIP3      H1            -20.6502815310       22.3374424405      -26.4416056306  TIP3      3831            0.0000000000
     24961      3977  TIP3      H2            -21.7873054951       21.6091639077      -27.1859340697  TIP3      3831            0.0000000000
     24962      3978  TIP3      OH2           -19.9511352992       25.7042180082      -37.9805081225  TIP3      3832            0.0000000000
     24963      3978  TIP3      H1            -19.9751069232       26.0383259507      -38.9044881495  TIP3      3832            0.0000000000
     24964      3978  TIP3      H2            -20.1777740301       26.5128740629      -37.4711916144  TIP3      3832            0.0000000000
     24965      3979  TIP3      OH2           -26.5817532809       24.7711629939      -35.9853508025  TIP3      3833            0.0000000000
     24966      3979  TIP3      H1            -26.3156210922       24.2370389354      -35.2024560946  TIP3      3833            0.0000000000
     24967      3979  TIP3      H2            -27.4447310039       24.4045764404      -36.2322170448  TIP3      3833            0.0000000000
     24968      3980  TIP3      OH2           -16.9493230409       25.7471136147      -41.0477292251  TIP3      3834            0.0000000000
     24969      3980  TIP3      H1            -16.5279574544       24.9543440125      -41.4207786492  TIP3      3834            0.0000000000
     24970      3980  TIP3      H2            -16.9815854983       25.5355305100      -40.0954127415  TIP3      3834            0.0000000000
     24971      3981  TIP3      OH2           -17.2777045508       25.1566006035      -38.2857585572  TIP3      3835            0.0000000000
     24972      3981  TIP3      H1            -18.2500397951       25.1765443225      -38.1759137633  TIP3      3835            0.0000000000
     24973      3981  TIP3      H2            -17.0310331756       24.4119052677      -37.7125186713  TIP3      3835            0.0000000000
     24974      3982  TIP3      OH2           -15.0380981775       14.6137677761      -25.7561593396  TIP3      3836            0.0000000000
     24975      3982  TIP3      H1            -15.4381721581       15.0042845797      -26.5572662736  TIP3      3836            0.0000000000
     24976      3982  TIP3      H2            -14.8002315186       13.7397258393      -26.1211946807  TIP3      3836            0.0000000000
     24977      3983  TIP3      OH2           -27.1276740548       20.8453859289      -28.0840557610  TIP3      3837            0.0000000000
     24978      3983  TIP3      H1            -27.5066339045       20.9699675169      -27.1905262264  TIP3      3837            0.0000000000
     24979      3983  TIP3      H2            -27.8552894298       20.3442236060      -28.5103080448  TIP3      3837            0.0000000000
     24980      3984  TIP3      OH2           -24.5490652430        9.0948069925      -32.1422239194  TIP3      3838            0.0000000000
     24981      3984  TIP3      H1            -25.5036786278        9.0275369714      -32.3678586913  TIP3      3838            0.0000000000
     24982      3984  TIP3      H2            -24.5520000324        9.8093216189      -31.4825305705  TIP3      3838            0.0000000000
     24983      3985  TIP3      OH2           -19.6504213968        8.7141501576      -28.8249556242  TIP3      3839            0.0000000000
     24984      3985  TIP3      H1            -19.1876264368        8.3401424608      -28.0375468429  TIP3      3839            0.0000000000
     24985      3985  TIP3      H2            -20.5863175518        8.7503711144      -28.5366394600  TIP3      3839            0.0000000000
     24986      3986  TIP3      OH2           -16.4969046886       12.6640632920      -28.0963316925  TIP3      3840            0.0000000000
     24987      3986  TIP3      H1            -17.2143901029       12.7205978676      -27.4355786844  TIP3      3840            0.0000000000
     24988      3986  TIP3      H2            -16.3108925830       13.5961551529      -28.3442149708  TIP3      3840            0.0000000000
     24989      3987  TIP3      OH2           -16.0998342796       17.6711076650      -41.3771728220  TIP3      3841            0.0000000000
     24990      3987  TIP3      H1            -15.9254922529       17.7372768362      -42.3280944181  TIP3      3841            0.0000000000
     24991      3987  TIP3      H2            -15.4726135806       18.3183944202      -41.0037802277  TIP3      3841            0.0000000000
     24992      3988  TIP3      OH2           -19.8390981283       11.5051356565      -41.2610366135  TIP3      3842            0.0000000000
     24993      3988  TIP3      H1            -20.1470686068       11.2670190792      -40.3641349667  TIP3      3842            0.0000000000
     24994      3988  TIP3      H2            -20.5353626906       11.0806367553      -41.7980451792  TIP3      3842            0.0000000000
     24995      3989  TIP3      OH2           -24.6094587227       13.7678731214      -30.7292226398  TIP3      3843            0.0000000000
     24996      3989  TIP3      H1            -25.3865655228       13.8615708527      -30.1378468245  TIP3      3843            0.0000000000
     24997      3989  TIP3      H2            -24.5303853751       14.6996649658      -31.0290376603  TIP3      3843            0.0000000000
     24998      3990  TIP3      OH2           -24.7112764383       14.0565330377      -35.4588472112  TIP3      3844            0.0000000000
     24999      3990  TIP3      H1            -25.6382199647       13.9340872951      -35.7762366391  TIP3      3844            0.0000000000
     25000      3990  TIP3      H2            -24.2365140507       14.1197977864      -36.3153114374  TIP3      3844            0.0000000000
     25001      3991  TIP3      OH2           -18.9328373384       14.8439678350      -36.8604237431  TIP3      3845            0.0000000000
     25002      3991  TIP3      H1            -19.1459820603       15.7039080258      -37.3084056009  TIP3      3845            0.0000000000
     25003      3991  TIP3      H2            -18.4580015149       14.3780765394      -37.5867173421  TIP3      3845            0.0000000000
     25004      3992  TIP3      OH2           -20.3668316399       15.0868417762      -25.7720053914  TIP3      3846            0.0000000000
     25005      3992  TIP3      H1            -20.6384760482       14.1934103709      -25.4874630654  TIP3      3846            0.0000000000
     25006      3992  TIP3      H2            -19.8124354325       15.3732952554      -25.0324430026  TIP3      3846            0.0000000000
     25007      3993  TIP3      OH2           -18.3076787061       13.6045090892      -33.7369245057  TIP3      3847            0.0000000000
     25008      3993  TIP3      H1            -18.3331767296       14.3175706636      -34.4051572172  TIP3      3847            0.0000000000
     25009      3993  TIP3      H2            -18.3063440769       12.7967271155      -34.2826237889  TIP3      3847            0.0000000000
     25010      3994  TIP3      OH2           -27.0808215434       13.8191864942      -29.5634472280  TIP3      3848            0.0000000000
     25011      3994  TIP3      H1            -26.9535320191       14.3050451467      -28.7237664157  TIP3      3848            0.0000000000
     25012      3994  TIP3      H2            -27.4404302289       12.9791371454      -29.2271647790  TIP3      3848            0.0000000000
     25013      3995  TIP3      OH2           -23.2179005650       12.6220222743       42.1520878489  TIP3      3849            0.0000000000
     25014      3995  TIP3      H1            -22.8583072848       11.8916448542       42.7247085328  TIP3      3849            0.0000000000
     25015      3995  TIP3      H2            -23.6662446953       13.1652087425       42.8189778461  TIP3      3849            0.0000000000
     25016      3996  TIP3      OH2           -29.7682441345       11.3308548408      -35.2509795604  TIP3      3850            0.0000000000
     25017      3996  TIP3      H1            -29.0920780013       11.0313182951      -34.6360379471  TIP3      3850            0.0000000000
     25018      3996  TIP3      H2            -29.4515149178       10.9613048902      -36.0923883789  TIP3      3850            0.0000000000
     25019      3997  TIP3      OH2           -28.9753089033       12.0993971910      -40.0108790562  TIP3      3851            0.0000000000
     25020      3997  TIP3      H1            -28.0834980619       11.8797670085      -40.3356537134  TIP3      3851            0.0000000000
     25021      3997  TIP3      H2            -28.8151047589       12.7164575065      -39.2888962507  TIP3      3851            0.0000000000
     25022      3998  TIP3      OH2           -19.3059746778       15.9350104677      -29.7581488811  TIP3      3852            0.0000000000
     25023      3998  TIP3      H1            -18.6151650282       15.2891806453      -30.0103159041  TIP3      3852            0.0000000000
     25024      3998  TIP3      H2            -19.8014427058       15.3658721340      -29.1215030648  TIP3      3852            0.0000000000
     25025      3999  TIP3      OH2           -21.6034053096       11.2058422197      -34.7150861070  TIP3      3853            0.0000000000
     25026      3999  TIP3      H1            -22.5716693270       11.1861414018      -34.5488909290  TIP3      3853            0.0000000000
     25027      3999  TIP3      H2            -21.2244680299       10.8989512912      -33.8729343617  TIP3      3853            0.0000000000
     25028      4000  TIP3      OH2           -27.2095076905       13.3475803349      -35.9885994332  TIP3      3854            0.0000000000
     25029      4000  TIP3      H1            -27.9144343930       13.6072009347      -36.6159030395  TIP3      3854            0.0000000000
     25030      4000  TIP3      H2            -26.9063120867       12.4746873025      -36.3155279178  TIP3      3854            0.0000000000
     25031      4001  TIP3      OH2           -23.8471948221       13.3218368867      -38.0373338536  TIP3      3855            0.0000000000
     25032      4001  TIP3      H1            -22.8790945683       13.4725869640      -37.9191708220  TIP3      3855            0.0000000000
     25033      4001  TIP3      H2            -24.0285417975       13.7468593339      -38.8978885091  TIP3      3855            0.0000000000
     25034      4002  TIP3      OH2           -17.4581222100       10.6826103625      -31.7218158479  TIP3      3856            0.0000000000
     25035      4002  TIP3      H1            -18.3406387515       10.9085969644      -31.3797950431  TIP3      3856            0.0000000000
     25036      4002  TIP3      H2            -17.6935784780        9.9455195816      -32.3244513769  TIP3      3856            0.0000000000
     25037      4003  TIP3      OH2           -24.5049301479       14.4156888804      -40.5844085279  TIP3      3857            0.0000000000
     25038      4003  TIP3      H1            -25.2202725682       14.3832398044      -41.2408473676  TIP3      3857            0.0000000000
     25039      4003  TIP3      H2            -23.8624933880       15.0310180750      -40.9986280980  TIP3      3857            0.0000000000
     25040      4004  TIP3      OH2           -14.6961823223       26.2095510502      -25.1298267620  TIP3      3858            0.0000000000
     25041      4004  TIP3      H1            -14.4551325265       26.2769499520      -26.0776734386  TIP3      3858            0.0000000000
     25042      4004  TIP3      H2            -14.2552506048       26.9908688400      -24.7807345196  TIP3      3858            0.0000000000
     25043      4005  TIP3      OH2           -25.2825770159       20.1769508731      -25.6064826435  TIP3      3859            0.0000000000
     25044      4005  TIP3      H1            -25.3503661091       19.2025604939      -25.4809210546  TIP3      3859            0.0000000000
     25045      4005  TIP3      H2            -26.2068442865       20.4002776061      -25.4314921482  TIP3      3859            0.0000000000
     25046      4006  TIP3      OH2           -21.8891051658       14.3067348478      -33.4559366216  TIP3      3860            0.0000000000
     25047      4006  TIP3      H1            -20.9604315145       14.2872125919      -33.7260257277  TIP3      3860            0.0000000000
     25048      4006  TIP3      H2            -22.0333067787       13.3968651283      -33.1690425380  TIP3      3860            0.0000000000
     25049      4007  TIP3      OH2           -26.1344070312       10.8107546963      -36.3627160455  TIP3      3861            0.0000000000
     25050      4007  TIP3      H1            -26.6230583906        9.9823595777      -36.1634740007  TIP3      3861            0.0000000000
     25051      4007  TIP3      H2            -25.8526712356       10.7072254538      -37.3010390843  TIP3      3861            0.0000000000
     25052      4008  TIP3      OH2           -22.0389311816       12.7294837198      -30.3655935200  TIP3      3862            0.0000000000
     25053      4008  TIP3      H1            -22.7817900389       13.3321083290      -30.5466368504  TIP3      3862            0.0000000000
     25054      4008  TIP3      H2            -21.4290253598       13.2750353788      -29.8348467722  TIP3      3862            0.0000000000
     25055      4009  TIP3      OH2           -21.3582730406       19.2171600183      -38.5466586781  TIP3      3863            0.0000000000
     25056      4009  TIP3      H1            -22.1018435552       18.7035753856      -38.9349352212  TIP3      3863            0.0000000000
     25057      4009  TIP3      H2            -21.7496000709       19.4311374024      -37.6700015390  TIP3      3863            0.0000000000
     25058      4010  TIP3      OH2           -14.2733368727       18.5555310599      -30.2943177402  TIP3      3864            0.0000000000
     25059      4010  TIP3      H1            -13.6794715642       19.0814888043      -30.8821936442  TIP3      3864            0.0000000000
     25060      4010  TIP3      H2            -15.0243873295       18.3805706237      -30.8861989678  TIP3      3864            0.0000000000
     25061      4011  TIP3      OH2           -17.1142244080       11.6385902400      -40.9069742334  TIP3      3865            0.0000000000
     25062      4011  TIP3      H1            -18.0082442316       11.6681504229      -41.3075856965  TIP3      3865            0.0000000000
     25063      4011  TIP3      H2            -17.2676085656       12.2592339271      -40.1700756726  TIP3      3865            0.0000000000
     25064      4012  TIP3      OH2           -20.7964385672       19.2187442468      -27.9775998641  TIP3      3866            0.0000000000
     25065      4012  TIP3      H1            -20.7548330238       18.8891266078      -27.0660954702  TIP3      3866            0.0000000000
     25066      4012  TIP3      H2            -20.8689529144       20.1700015500      -27.8138325808  TIP3      3866            0.0000000000
     25067      4013  TIP3      OH2           -17.6468328730       13.5671822314      -38.8855054976  TIP3      3867            0.0000000000
     25068      4013  TIP3      H1            -16.8083924711       13.4351298105      -38.3885510040  TIP3      3867            0.0000000000
     25069      4013  TIP3      H2            -17.4890056586       14.4335447906      -39.3066144339  TIP3      3867            0.0000000000
     25070      4014  TIP3      OH2           -26.3736021231       18.5280125859      -33.2235471753  TIP3      3868            0.0000000000
     25071      4014  TIP3      H1            -25.9279719654       18.3578777010      -34.0749357548  TIP3      3868            0.0000000000
     25072      4014  TIP3      H2            -26.0700948193       17.7874708524      -32.6796126633  TIP3      3868            0.0000000000
     25073      4015  TIP3      OH2           -19.1616313321       20.3250356915      -39.7550014291  TIP3      3869            0.0000000000
     25074      4015  TIP3      H1            -19.5160619593       21.2436076770      -39.6636229264  TIP3      3869            0.0000000000
     25075      4015  TIP3      H2            -19.9594463077       19.8116452635      -39.5009844499  TIP3      3869            0.0000000000
     25076      4016  TIP3      OH2           -29.6085938069       16.6105142742      -27.6297767845  TIP3      3870            0.0000000000
     25077      4016  TIP3      H1            -29.1880556043       16.0026846575      -26.9927603653  TIP3      3870            0.0000000000
     25078      4016  TIP3      H2            -30.5184750223       16.5283032411      -27.3176808089  TIP3      3870            0.0000000000
     25079      4017  TIP3      OH2           -22.7963111943       16.4609311809      -25.7295539940  TIP3      3871            0.0000000000
     25080      4017  TIP3      H1            -23.3188664946       15.9384375363      -26.3682992106  TIP3      3871            0.0000000000
     25081      4017  TIP3      H2            -21.9605372541       15.9477457175      -25.6771823772  TIP3      3871            0.0000000000
     25082      4018  TIP3      OH2           -17.5500585240       21.4975368001      -27.3960288126  TIP3      3872            0.0000000000
     25083      4018  TIP3      H1            -18.2643196658       21.6005353626      -28.0362027878  TIP3      3872            0.0000000000
     25084      4018  TIP3      H2            -17.8524289271       22.1260009230      -26.7135263875  TIP3      3872            0.0000000000
     25085      4019  TIP3      OH2           -11.9631669933       13.8478432808      -39.3648068992  TIP3      3873            0.0000000000
     25086      4019  TIP3      H1            -12.7581071505       13.7540437459      -39.9265745885  TIP3      3873            0.0000000000
     25087      4019  TIP3      H2            -11.8510428535       14.8157227125      -39.3976442260  TIP3      3873            0.0000000000
     25088      4020  TIP3      OH2           -12.0045483572       19.7140193519      -26.7219533580  TIP3      3874            0.0000000000
     25089      4020  TIP3      H1            -12.9262725261       19.8140702383      -27.0670625722  TIP3      3874            0.0000000000
     25090      4020  TIP3      H2            -11.4913043316       19.5089479267      -27.5348635870  TIP3      3874            0.0000000000
     25091      4021  TIP3      OH2           -13.5328929921       22.3555348507      -39.2794534962  TIP3      3875            0.0000000000
     25092      4021  TIP3      H1            -14.0230583326       21.5280846308      -39.2079068330  TIP3      3875            0.0000000000
     25093      4021  TIP3      H2            -13.2940633383       22.3681962582      -40.2311933726  TIP3      3875            0.0000000000
     25094      4022  TIP3      OH2           -16.6049034209       17.4114611856      -31.7943597262  TIP3      3876            0.0000000000
     25095      4022  TIP3      H1            -17.5084684084       17.2200235651      -32.1085231274  TIP3      3876            0.0000000000
     25096      4022  TIP3      H2            -16.1075104821       16.6945954066      -32.2472556637  TIP3      3876            0.0000000000
     25097      4023  TIP3      OH2           -24.2305696323       21.9532529571      -35.3605684980  TIP3      3877            0.0000000000
     25098      4023  TIP3      H1            -23.9638325999       22.7709578662      -35.8389244117  TIP3      3877            0.0000000000
     25099      4023  TIP3      H2            -25.1552903908       21.8619482981      -35.6272402706  TIP3      3877            0.0000000000
     25100      4024  TIP3      OH2           -28.3233857203       16.6846097451      -40.6422780026  TIP3      3878            0.0000000000
     25101      4024  TIP3      H1            -27.5851187334       17.2706801686      -40.4042950004  TIP3      3878            0.0000000000
     25102      4024  TIP3      H2            -29.0431756001       17.2907065797      -40.8731411161  TIP3      3878            0.0000000000
     25103      4025  TIP3      OH2           -22.7971946379       19.7100183260      -36.0578322307  TIP3      3879            0.0000000000
     25104      4025  TIP3      H1            -23.2684185951       20.5578090830      -35.8943013883  TIP3      3879            0.0000000000
     25105      4025  TIP3      H2            -23.3940721975       19.0532264170      -35.6416439209  TIP3      3879            0.0000000000
     25106      4026  TIP3      OH2           -22.0206785861       23.8391689132      -29.0689440051  TIP3      3880            0.0000000000
     25107      4026  TIP3      H1            -21.4049628486       24.4727469518      -29.5090217022  TIP3      3880            0.0000000000
     25108      4026  TIP3      H2            -21.3849072109       23.2875259872      -28.5476153152  TIP3      3880            0.0000000000
     25109      4027  TIP3      OH2           -24.1970325806       24.2530530695      -37.0132351656  TIP3      3881            0.0000000000
     25110      4027  TIP3      H1            -25.1108682505       24.4773368586      -36.7432144402  TIP3      3881            0.0000000000
     25111      4027  TIP3      H2            -23.7430334483       24.9921260425      -36.5570511676  TIP3      3881            0.0000000000
     25112      4028  TIP3      OH2           -18.9545424258       19.6711223788      -30.0356692801  TIP3      3882            0.0000000000
     25113      4028  TIP3      H1            -19.4189641858       19.4175433983      -29.2075976665  TIP3      3882            0.0000000000
     25114      4028  TIP3      H2            -18.4750992647       18.8458731664      -30.2362963527  TIP3      3882            0.0000000000
     25115      4029  TIP3      OH2           -16.3093857305       20.8827854181      -40.7382492201  TIP3      3883            0.0000000000
     25116      4029  TIP3      H1            -16.1983867346       20.3627483419      -39.9194233327  TIP3      3883            0.0000000000
     25117      4029  TIP3      H2            -17.2500361279       20.6796709449      -40.8954225940  TIP3      3883            0.0000000000
     25118      4030  TIP3      OH2           -15.8205081772       24.5810751905      -27.7759827921  TIP3      3884            0.0000000000
     25119      4030  TIP3      H1            -16.5977215282       24.0233673536      -27.9386277053  TIP3      3884            0.0000000000
     25120      4030  TIP3      H2            -15.8019145490       25.1419055420      -28.5776451499  TIP3      3884            0.0000000000
     25121      4031  TIP3      OH2           -11.7611075295       25.3426176019      -40.7887187653  TIP3      3885            0.0000000000
     25122      4031  TIP3      H1            -11.5677160636       26.0195145667      -41.4563527694  TIP3      3885            0.0000000000
     25123      4031  TIP3      H2            -12.4678712248       25.7792062257      -40.2566523482  TIP3      3885            0.0000000000
     25124      4032  TIP3      OH2           -27.5737958341       11.3073879969      -28.4913361249  TIP3      3886            0.0000000000
     25125      4032  TIP3      H1            -28.5072433522       11.0252806616      -28.4411981173  TIP3      3886            0.0000000000
     25126      4032  TIP3      H2            -27.3985442215       11.3655942211      -27.5330449699  TIP3      3886            0.0000000000
     25127      4033  TIP3      OH2           -15.4498185376       19.3022932444      -38.5542003989  TIP3      3887            0.0000000000
     25128      4033  TIP3      H1            -15.6960814494       18.5024081344      -38.0207798878  TIP3      3887            0.0000000000
     25129      4033  TIP3      H2            -14.4715228890       19.2712671701      -38.5000175918  TIP3      3887            0.0000000000
     25130      4034  TIP3      OH2           -27.9045140657       23.3371249054      -29.9750288084  TIP3      3888            0.0000000000
     25131      4034  TIP3      H1            -27.5308636403       22.5063461833      -29.6251293865  TIP3      3888            0.0000000000
     25132      4034  TIP3      H2            -28.7398252190       23.4046269608      -29.5056032503  TIP3      3888            0.0000000000
     25133      4035  TIP3      OH2           -23.2694419503       21.2975993173      -40.3441199487  TIP3      3889            0.0000000000
     25134      4035  TIP3      H1            -22.6609841108       20.8722888584      -39.7165460924  TIP3      3889            0.0000000000
     25135      4035  TIP3      H2            -23.1106152624       22.2507818465      -40.1300795826  TIP3      3889            0.0000000000
     25136      4036  TIP3      OH2           -26.7659746909       18.5414229657      -39.1181122897  TIP3      3890            0.0000000000
     25137      4036  TIP3      H1            -27.5743712250       18.9958246525      -38.7865762574  TIP3      3890            0.0000000000
     25138      4036  TIP3      H2            -26.2795638676       19.2541198076      -39.5710277773  TIP3      3890            0.0000000000
     25139      4037  TIP3      OH2           -18.8596732006       11.5294755905      -29.0822428495  TIP3      3891            0.0000000000
     25140      4037  TIP3      H1            -17.9024417291       11.5951596991      -28.9119266079  TIP3      3891            0.0000000000
     25141      4037  TIP3      H2            -19.0374173194       10.6143868192      -28.8063403110  TIP3      3891            0.0000000000
     25142      4038  TIP3      OH2           -17.3975007286        9.9492127565      -37.7768205062  TIP3      3892            0.0000000000
     25143      4038  TIP3      H1            -17.6054523000       10.5410089480      -38.5111572603  TIP3      3892            0.0000000000
     25144      4038  TIP3      H2            -17.5062828144       10.5362312085      -36.9982909581  TIP3      3892            0.0000000000
     25145      4039  TIP3      OH2           -20.2483517977       22.7676982652      -39.5390459838  TIP3      3893            0.0000000000
     25146      4039  TIP3      H1            -20.8785644277       23.2777317251      -39.0105340563  TIP3      3893            0.0000000000
     25147      4039  TIP3      H2            -19.8578305771       23.4322611673      -40.1468816831  TIP3      3893            0.0000000000
     25148      4040  TIP3      OH2           -21.3334066945       13.0722497651      -37.1792908499  TIP3      3894            0.0000000000
     25149      4040  TIP3      H1            -20.5668565488       13.5985660328      -36.9167837969  TIP3      3894            0.0000000000
     25150      4040  TIP3      H2            -21.5440257185       12.5055803251      -36.4115047485  TIP3      3894            0.0000000000
     25151      4041  TIP3      OH2           -20.1597539075       13.9057281564      -28.2766855864  TIP3      3895            0.0000000000
     25152      4041  TIP3      H1            -20.1296726121       14.2171549740      -27.3483252196  TIP3      3895            0.0000000000
     25153      4041  TIP3      H2            -19.6936655667       13.0416905589      -28.3095586656  TIP3      3895            0.0000000000
     25154      4042  TIP3      OH2           -19.8178181185        9.3247621136      -36.0855955104  TIP3      3896            0.0000000000
     25155      4042  TIP3      H1            -20.4651753012       10.0294078305      -35.9099167488  TIP3      3896            0.0000000000
     25156      4042  TIP3      H2            -19.4160759496        9.6817931317      -36.9040717187  TIP3      3896            0.0000000000
     25157      4043  TIP3      OH2           -22.9680625219       23.8077469945      -39.6089468913  TIP3      3897            0.0000000000
     25158      4043  TIP3      H1            -22.7085766613       24.7074458725      -39.8948683058  TIP3      3897            0.0000000000
     25159      4043  TIP3      H2            -23.4811180038       24.0229341125      -38.8049022094  TIP3      3897            0.0000000000
     25160      4044  TIP3      OH2           -25.1535506494       10.6608269991      -39.0294077794  TIP3      3898            0.0000000000
     25161      4044  TIP3      H1            -24.8241544342       11.5571012532      -38.8260679096  TIP3      3898            0.0000000000
     25162      4044  TIP3      H2            -24.3296714052       10.3179669869      -39.4335324656  TIP3      3898            0.0000000000
     25163      4045  TIP3      OH2           -14.3350983969       11.9270131310      -26.7503065590  TIP3      3899            0.0000000000
     25164      4045  TIP3      H1            -15.2815206349       11.9471286800      -27.0074541540  TIP3      3899            0.0000000000
     25165      4045  TIP3      H2            -14.0136765312       11.5642054569      -27.6015936661  TIP3      3899            0.0000000000
     25166      4046  TIP3      OH2           -15.8706217081       15.1648267129      -33.2654815130  TIP3      3900            0.0000000000
     25167      4046  TIP3      H1            -16.5721440377       14.6412512595      -32.8381260605  TIP3      3900            0.0000000000
     25168      4046  TIP3      H2            -15.0787136986       14.7836861049      -32.8025735661  TIP3      3900            0.0000000000
     25169      4047  TIP3      OH2           -26.0654041171       21.5130128917      -40.7804002762  TIP3      3901            0.0000000000
     25170      4047  TIP3      H1            -25.1886630168       21.7406519900      -40.4176147509  TIP3      3901            0.0000000000
     25171      4047  TIP3      H2            -25.7995363619       20.7048681655      -41.2721324527  TIP3      3901            0.0000000000
     25172      4048  TIP3      OH2           -27.5682699185       14.0371676635      -41.7889842382  TIP3      3902            0.0000000000
     25173      4048  TIP3      H1            -27.5193714928       14.9380217307      -41.4140276190  TIP3      3902            0.0000000000
     25174      4048  TIP3      H2            -28.5091340404       14.0076559488      -41.9894940497  TIP3      3902            0.0000000000
     25175      4049  TIP3      OH2           -14.7351354839       24.5800563772      -31.6353839445  TIP3      3903            0.0000000000
     25176      4049  TIP3      H1            -14.6945692317       25.2905893520      -32.3139595593  TIP3      3903            0.0000000000
     25177      4049  TIP3      H2            -13.7906517647       24.4852027649      -31.4160845140  TIP3      3903            0.0000000000
     25178      4050  TIP3      OH2           -27.1177641798        8.6592562436      -32.6202502944  TIP3      3904            0.0000000000
     25179      4050  TIP3      H1            -27.2461781248        8.5802322155      -33.5907143071  TIP3      3904            0.0000000000
     25180      4050  TIP3      H2            -27.4406393518        7.7680068963      -32.3471716545  TIP3      3904            0.0000000000
     25181      4051  TIP3      OH2           -28.2755983404       22.4584077318      -37.1600925958  TIP3      3905            0.0000000000
     25182      4051  TIP3      H1            -29.0343985755       22.9331703425      -36.8000218909  TIP3      3905            0.0000000000
     25183      4051  TIP3      H2            -28.0406689523       22.9908524229      -37.9533476790  TIP3      3905            0.0000000000
     25184      4052  TIP3      OH2           -28.5416942607       25.1478749307      -25.5813763283  TIP3      3906            0.0000000000
     25185      4052  TIP3      H1            -27.8144714504       25.0928684857      -24.9279199508  TIP3      3906            0.0000000000
     25186      4052  TIP3      H2            -29.0453998382       24.3616962752      -25.3336790602  TIP3      3906            0.0000000000
     25187      4053  TIP3      OH2           -24.2310451099       23.8363682156      -23.7886786788  TIP3      3907            0.0000000000
     25188      4053  TIP3      H1            -23.3345278546       23.5213772556      -23.5908784019  TIP3      3907            0.0000000000
     25189      4053  TIP3      H2            -24.4112951012       23.3353017245      -24.6003840665  TIP3      3907            0.0000000000
     25190      4054  TIP3      OH2           -19.3281286878       24.1083806022      -41.6680325920  TIP3      3908            0.0000000000
     25191      4054  TIP3      H1            -20.0795843359       23.6763406044      -42.1305223682  TIP3      3908            0.0000000000
     25192      4054  TIP3      H2            -18.6519389595       24.0570006195      -42.3581484919  TIP3      3908            0.0000000000
     25193      4055  TIP3      OH2           -18.1456918500       23.1813416775      -25.2211501982  TIP3      3909            0.0000000000
     25194      4055  TIP3      H1            -18.4142025321       22.2597403984      -24.9721594455  TIP3      3909            0.0000000000
     25195      4055  TIP3      H2            -17.2929285650       23.2310019926      -24.7316192676  TIP3      3909            0.0000000000
     25196      4056  TIP3      OH2           -15.2202846041       23.3678476094      -42.2282486396  TIP3      3910            0.0000000000
     25197      4056  TIP3      H1            -15.6397140753       22.6169834701      -41.7555145060  TIP3      3910            0.0000000000
     25198      4056  TIP3      H2            -14.2987570588       23.0412821535      -42.1589604956  TIP3      3910            0.0000000000
     25199      4057  TIP3      OH2           -29.2600167112       19.4471502747      -23.8548015478  TIP3      3911            0.0000000000
     25200      4057  TIP3      H1            -28.6291898551       18.7136578705      -24.0126113735  TIP3      3911            0.0000000000
     25201      4057  TIP3      H2            -29.6810769247       19.5345021978      -24.7247862827  TIP3      3911            0.0000000000
     25202      4058  TIP3      OH2           -24.7416757739       19.3310062898      -41.7199864364  TIP3      3912            0.0000000000
     25203      4058  TIP3      H1            -24.1561489861       19.2202029917      -40.9459516742  TIP3      3912            0.0000000000
     25204      4058  TIP3      H2            -24.0820114552       19.2233652504      -42.4330585129  TIP3      3912            0.0000000000
     25205      4059  TIP3      OH2           -22.4891638337       19.0538489052      -25.5402608388  TIP3      3913            0.0000000000
     25206      4059  TIP3      H1            -23.0339514134       19.4464220318      -26.2523136473  TIP3      3913            0.0000000000
     25207      4059  TIP3      H2            -22.6749568934       18.0834037666      -25.6320357062  TIP3      3913            0.0000000000
     25208      4060  TIP3      OH2           -16.7088215047       18.7448866804      -27.6625046518  TIP3      3914            0.0000000000
     25209      4060  TIP3      H1            -15.8635105786       19.2355724357      -27.5542447319  TIP3      3914            0.0000000000
     25210      4060  TIP3      H2            -17.3045175983       19.5067605216      -27.5597787035  TIP3      3914            0.0000000000
     25211      4061  TIP3      OH2           -28.6375395238       15.3099685840      -24.5856689475  TIP3      3915            0.0000000000
     25212      4061  TIP3      H1            -27.7756647892       15.7115329826      -24.8221664371  TIP3      3915            0.0000000000
     25213      4061  TIP3      H2            -28.6926540301       15.5545407535      -23.6448606683  TIP3      3915            0.0000000000
     25214      4062  TIP3      OH2           -23.3258603208       17.7464294823      -39.7351424698  TIP3      3916            0.0000000000
     25215      4062  TIP3      H1            -23.9979947483       17.2288967357      -39.2602353440  TIP3      3916            0.0000000000
     25216      4062  TIP3      H2            -23.0141286266       17.0874893876      -40.3983810759  TIP3      3916            0.0000000000
     25217      4063  TIP3      OH2           -23.7864937623       15.1618938481      -27.8274966773  TIP3      3917            0.0000000000
     25218      4063  TIP3      H1            -24.6630396083       15.5979777153      -27.8796526020  TIP3      3917            0.0000000000
     25219      4063  TIP3      H2            -23.2392181606       15.6786351439      -28.4601076265  TIP3      3917            0.0000000000
     25220      4064  TIP3      OH2           -22.4518066569       15.8854304546      -41.5369106562  TIP3      3918            0.0000000000
     25221      4064  TIP3      H1            -22.2628754521       15.2818242285      -42.2711386314  TIP3      3918            0.0000000000
     25222      4064  TIP3      H2            -21.5258394531       16.1084879882      -41.2596519326  TIP3      3918            0.0000000000
     25223      4065  TIP3      OH2           -18.9254585103       18.0846370724      -24.1686591687  TIP3      3919            0.0000000000
     25224      4065  TIP3      H1            -18.0334046607       17.9869992797      -24.5696829830  TIP3      3919            0.0000000000
     25225      4065  TIP3      H2            -19.0032707371       17.2491655317      -23.6540099952  TIP3      3919            0.0000000000
     25226      4066  TIP3      OH2           -13.1205693963       18.5807868225       42.2681078631  TIP3      3920            0.0000000000
     25227      4066  TIP3      H1            -13.3288564664       18.7307595560       41.3381255193  TIP3      3920            0.0000000000
     25228      4066  TIP3      H2            -12.5554849759       19.3442499638       42.4555791704  TIP3      3920            0.0000000000
     25229      4067  TIP3      OH2           -23.7937164535       12.6379987713      -26.9084922362  TIP3      3921            0.0000000000
     25230      4067  TIP3      H1            -23.4667559913       12.0176544124      -27.5878568232  TIP3      3921            0.0000000000
     25231      4067  TIP3      H2            -23.6632507010       13.5369713175      -27.3067870058  TIP3      3921            0.0000000000
     25232      4068  TIP3      OH2           -23.2935067137       10.9393589962      -28.9696710880  TIP3      3922            0.0000000000
     25233      4068  TIP3      H1            -22.6898373188       11.4897432016      -29.5365346240  TIP3      3922            0.0000000000
     25234      4068  TIP3      H2            -24.1497259829       11.1943380382      -29.3485127733  TIP3      3922            0.0000000000
     25235      4069  TIP3      OH2           -22.0981238493       16.6223486536      -29.2117991839  TIP3      3923            0.0000000000
     25236      4069  TIP3      H1            -21.2012325421       16.9900147532      -29.2266351844  TIP3      3923            0.0000000000
     25237      4069  TIP3      H2            -22.6563597493       17.4284998800      -29.2384979673  TIP3      3923            0.0000000000
     25238      4070  TIP3      OH2           -17.4468737304       13.9700353830      -22.8999869293  TIP3      3924            0.0000000000
     25239      4070  TIP3      H1            -17.9557530888       13.3438111874      -23.4350474259  TIP3      3924            0.0000000000
     25240      4070  TIP3      H2            -16.9225131196       14.4606207199      -23.5643330946  TIP3      3924            0.0000000000
     25241      4071  TIP3      OH2           -16.3019153867       17.4358716188      -25.2967640382  TIP3      3925            0.0000000000
     25242      4071  TIP3      H1            -16.5236752779       17.7543510912      -26.1999744873  TIP3      3925            0.0000000000
     25243      4071  TIP3      H2            -15.3892566692       17.1129941811      -25.4041410513  TIP3      3925            0.0000000000
     25244      4072  TIP3      OH2           -25.3507082052       13.5087070163      -24.8926285060  TIP3      3926            0.0000000000
     25245      4072  TIP3      H1            -26.2082517685       13.0386596255      -24.9208638998  TIP3      3926            0.0000000000
     25246      4072  TIP3      H2            -24.8574440994       13.1423535315      -25.6624523271  TIP3      3926            0.0000000000
     25247      4073  TIP3      OH2           -22.4377386604        8.3724007865      -28.7353921313  TIP3      3927            0.0000000000
     25248      4073  TIP3      H1            -22.7118242348        9.3166801502      -28.7916922420  TIP3      3927            0.0000000000
     25249      4073  TIP3      H2            -23.0757512647        7.9492459760      -29.3220745227  TIP3      3927            0.0000000000
     25250      4074  TIP3      OH2           -21.4381928675       12.6058845468      -24.6218400090  TIP3      3928            0.0000000000
     25251      4074  TIP3      H1            -21.9033623759       12.3499191864      -23.8065953486  TIP3      3928            0.0000000000
     25252      4074  TIP3      H2            -22.1121004582       12.3701514271      -25.2818769076  TIP3      3928            0.0000000000
     25253      4075  TIP3      OH2           -18.4703806693       11.8825683311      -25.8844482393  TIP3      3929            0.0000000000
     25254      4075  TIP3      H1            -19.3697462076       11.6767952916      -25.5850917753  TIP3      3929            0.0000000000
     25255      4075  TIP3      H2            -17.8888601530       11.3282454840      -25.3351067196  TIP3      3929            0.0000000000
     25256      4076  TIP3      OH2           -16.4520148394       10.7815573972      -24.2490277089  TIP3      3930            0.0000000000
     25257      4076  TIP3      H1            -16.6951926033        9.8395018464      -24.4021191945  TIP3      3930            0.0000000000
     25258      4076  TIP3      H2            -16.7263725439       10.8800922450      -23.3309748907  TIP3      3930            0.0000000000
     25259      4077  TIP3      OH2           -27.2217461815       11.5610696691      -24.4768092493  TIP3      3931            0.0000000000
     25260      4077  TIP3      H1            -27.5513284335       10.8555139131      -25.0723342856  TIP3      3931            0.0000000000
     25261      4077  TIP3      H2            -26.6752453457       11.0224686800      -23.8818677554  TIP3      3931            0.0000000000
     25262      4078  TIP3      OH2           -22.7947514598        8.0708630942      -26.0976987512  TIP3      3932            0.0000000000
     25263      4078  TIP3      H1            -22.1451617330        7.3745932244      -25.8855371496  TIP3      3932            0.0000000000
     25264      4078  TIP3      H2            -22.6216017079        8.1123625651      -27.0657257779  TIP3      3932            0.0000000000
     25265      4079  TIP3      OH2           -22.3432169216        9.3894497906      -23.3306079299  TIP3      3933            0.0000000000
     25266      4079  TIP3      H1            -22.4717118705        8.9859320406      -24.2027883292  TIP3      3933            0.0000000000
     25267      4079  TIP3      H2            -23.1001310060       10.0054250667      -23.2966130696  TIP3      3933            0.0000000000
     25268      4080  TIP3      OH2           -22.7462395548       26.4704599604      -40.3783015146  TIP3      3934            0.0000000000
     25269      4080  TIP3      H1            -21.8709849223       26.8593798905      -40.2666031816  TIP3      3934            0.0000000000
     25270      4080  TIP3      H2            -23.0173844959       26.8796179658      -41.2097713275  TIP3      3934            0.0000000000
     25271      4081  TIP3      OH2           -28.7853367751       21.3370915793      -41.0940999844  TIP3      3935            0.0000000000
     25272      4081  TIP3      H1            -28.0592948044       21.9867969793      -41.1670983698  TIP3      3935            0.0000000000
     25273      4081  TIP3      H2            -28.4209810604       20.5406713268      -41.4886228289  TIP3      3935            0.0000000000
     25274      4082  TIP3      OH2            30.1937026379       25.7031484686      -36.8229834716  TIP3      3936            0.0000000000
     25275      4082  TIP3      H1             29.2357907475       25.6016517601      -36.7087775439  TIP3      3936            0.0000000000
     25276      4082  TIP3      H2             30.4872187888       25.6932405849      -35.8967788255  TIP3      3936            0.0000000000
     25277      4083  TIP3      OH2           -29.1543069280       24.3350119839      -34.3310065244  TIP3      3937            0.0000000000
     25278      4083  TIP3      H1            -29.0597274942       23.3695730629      -34.3327175571  TIP3      3937            0.0000000000
     25279      4083  TIP3      H2            -28.6554215671       24.5995684963      -33.5279784544  TIP3      3937            0.0000000000
     25280      4084  TIP3      OH2           -11.8413247214       24.3670762519      -31.3155614118  TIP3      3938            0.0000000000
     25281      4084  TIP3      H1            -11.2973181000       24.1276169754      -30.5300487958  TIP3      3938            0.0000000000
     25282      4084  TIP3      H2            -11.7366150961       25.3277072772      -31.3498964284  TIP3      3938            0.0000000000
     25283      4085  TIP3      OH2           -12.4714630916       24.6887341994      -28.5836425013  TIP3      3939            0.0000000000
     25284      4085  TIP3      H1            -12.8717144621       23.9771025715      -29.1357812847  TIP3      3939            0.0000000000
     25285      4085  TIP3      H2            -12.0304057411       24.1361625723      -27.9079302473  TIP3      3939            0.0000000000
     25286      4086  TIP3      OH2           -13.4553716987       20.5431939692      -23.8676370810  TIP3      3940            0.0000000000
     25287      4086  TIP3      H1            -14.4098081653       20.5804231599      -23.7025200798  TIP3      3940            0.0000000000
     25288      4086  TIP3      H2            -13.1922235774       21.4671848234      -23.6884367853  TIP3      3940            0.0000000000
     25289      4087  TIP3      OH2           -12.7375384301       18.7470822117      -38.7510293219  TIP3      3941            0.0000000000
     25290      4087  TIP3      H1            -11.8868228236       19.1980545503      -38.5391709110  TIP3      3941            0.0000000000
     25291      4087  TIP3      H2            -12.8321604746       18.1037385167      -38.0125474414  TIP3      3941            0.0000000000
     25292      4088  TIP3      OH2           -12.2795870411       16.6550464636      -36.8501810469  TIP3      3942            0.0000000000
     25293      4088  TIP3      H1            -12.9593773588       16.1815122755      -36.3115065519  TIP3      3942            0.0000000000
     25294      4088  TIP3      H2            -11.6808771214       16.9367646067      -36.1325479317  TIP3      3942            0.0000000000
     25295      4089  TIP3      OH2           -12.4162192563       19.7227656530      -31.7713580043  TIP3      3943            0.0000000000
     25296      4089  TIP3      H1            -11.8034077747       19.0077741349      -32.0444392948  TIP3      3943            0.0000000000
     25297      4089  TIP3      H2            -11.9350963000       20.5233183243      -32.0618149608  TIP3      3943            0.0000000000
     25298      4090  TIP3      OH2           -13.8648013817       22.4505876306      -29.5036982929  TIP3      3944            0.0000000000
     25299      4090  TIP3      H1            -14.6444544251       22.9344120658      -29.2079130299  TIP3      3944            0.0000000000
     25300      4090  TIP3      H2            -14.1850714635       22.0695725884      -30.3514960832  TIP3      3944            0.0000000000
     25301      4091  TIP3      OH2           -12.0561748488       16.6790318294      -40.5128669137  TIP3      3945            0.0000000000
     25302      4091  TIP3      H1            -12.6837869872       17.0794962842      -41.1387338865  TIP3      3945            0.0000000000
     25303      4091  TIP3      H2            -12.2542189235       17.2266686895      -39.7254016550  TIP3      3945            0.0000000000
     25304      4092  TIP3      OH2           -14.3353330787       13.7634653320      -41.2573016256  TIP3      3946            0.0000000000
     25305      4092  TIP3      H1            -13.6796591123       14.2683958458      -41.7612760970  TIP3      3946            0.0000000000
     25306      4092  TIP3      H2            -14.3714549097       12.9194848599      -41.7406092325  TIP3      3946            0.0000000000
     25307      4093  TIP3      OH2           -14.2550690527       15.4216221359      -35.4414365051  TIP3      3947            0.0000000000
     25308      4093  TIP3      H1            -14.4101155852       14.5200455010      -35.7565978408  TIP3      3947            0.0000000000
     25309      4093  TIP3      H2            -14.7622755810       15.4125541108      -34.5989975894  TIP3      3947            0.0000000000
     25310      4094  TIP3      OH2           -29.2458357969       17.7708158214      -31.7824870485  TIP3      3948            0.0000000000
     25311      4094  TIP3      H1            -29.3849870316       17.4647343488      -32.7029257360  TIP3      3948            0.0000000000
     25312      4094  TIP3      H2            -28.2939395160       17.5712109794      -31.6670028734  TIP3      3948            0.0000000000
     25313      4095  TIP3      OH2           -13.3306646602       17.3860080534      -26.1928608073  TIP3      3949            0.0000000000
     25314      4095  TIP3      H1            -12.8427752149       16.5292581972      -26.2536493051  TIP3      3949            0.0000000000
     25315      4095  TIP3      H2            -12.6359924859       18.0541854772      -26.3779231042  TIP3      3949            0.0000000000
     25316      4096  TIP3      OH2           -12.4128010968       14.8574941144      -26.0898552235  TIP3      3950            0.0000000000
     25317      4096  TIP3      H1            -13.2210890218       14.5915313867      -25.6067911717  TIP3      3950            0.0000000000
     25318      4096  TIP3      H2            -11.7404887334       14.2390342184      -25.7326807423  TIP3      3950            0.0000000000
     25319      4097  TIP3      OH2           -14.2913539232       11.3641847118      -42.7064738408  TIP3      3951            0.0000000000
     25320      4097  TIP3      H1            -13.7990766409       10.8979539745      -41.9810930027  TIP3      3951            0.0000000000
     25321      4097  TIP3      H2            -15.2171190583       11.2884544384      -42.4055684063  TIP3      3951            0.0000000000
     25322      4098  TIP3      OH2           -15.3442804293       13.0686599128      -37.5992400203  TIP3      3952            0.0000000000
     25323      4098  TIP3      H1            -14.9631313127       12.2828054428      -37.1590044981  TIP3      3952            0.0000000000
     25324      4098  TIP3      H2            -14.7297523241       13.0698582517      -38.3522693174  TIP3      3952            0.0000000000
     25325      4099  TIP3      OH2           -14.0328062607       13.9386511891      -31.7959369879  TIP3      3953            0.0000000000
     25326      4099  TIP3      H1            -13.0513172666       13.8425524250      -31.7838420579  TIP3      3953            0.0000000000
     25327      4099  TIP3      H2            -14.1848837854       13.8491126901      -30.8357196901  TIP3      3953            0.0000000000
     25328      4100  TIP3      OH2           -13.5790027657       14.4557679394      -29.1445458043  TIP3      3954            0.0000000000
     25329      4100  TIP3      H1            -14.2872204621       14.8575873232      -28.6000129672  TIP3      3954            0.0000000000
     25330      4100  TIP3      H2            -13.0608573100       15.2589950125      -29.4061986478  TIP3      3954            0.0000000000
     25331      4101  TIP3      OH2           -29.2791630595       12.4883915827      -26.2724539820  TIP3      3955            0.0000000000
     25332      4101  TIP3      H1            -28.6008160159       12.7058131297      -25.6081222846  TIP3      3955            0.0000000000
     25333      4101  TIP3      H2            -30.0845516285       12.5180823631      -25.7079727457  TIP3      3955            0.0000000000
     25334      4102  TIP3      OH2           -11.9819630860        7.9261471443      -24.4599388731  TIP3      3956            0.0000000000
     25335      4102  TIP3      H1            -11.6768554169        7.7777077798      -25.3860907381  TIP3      3956            0.0000000000
     25336      4102  TIP3      H2            -11.4356794348        8.6730962555      -24.1788882881  TIP3      3956            0.0000000000
     25337      4103  TIP3      OH2           -13.8133420249       10.8787519255      -37.3583755973  TIP3      3957            0.0000000000
     25338      4103  TIP3      H1            -13.5159182952       10.2955858757      -36.6276808575  TIP3      3957            0.0000000000
     25339      4103  TIP3      H2            -14.3121790851       10.2489785524      -37.8877153128  TIP3      3957            0.0000000000
     25340      4104  TIP3      OH2           -28.8082736265       10.9912592534      -32.4292544179  TIP3      3958            0.0000000000
     25341      4104  TIP3      H1            -28.4085627610       10.1115714920      -32.5231493944  TIP3      3958            0.0000000000
     25342      4104  TIP3      H2            -28.0374078982       11.5740065791      -32.5025791067  TIP3      3958            0.0000000000
     25343      4105  TIP3      OH2           -30.0503631132       14.0300688674      -31.7238982025  TIP3      3959            0.0000000000
     25344      4105  TIP3      H1            -29.4793893050       13.8097782888      -32.4905829848  TIP3      3959            0.0000000000
     25345      4105  TIP3      H2            -29.3894669581       14.3158471404      -31.0772868363  TIP3      3959            0.0000000000
     25346      4106  TIP3      OH2           -12.3046361608       10.6573496627      -25.4742401218  TIP3      3960            0.0000000000
     25347      4106  TIP3      H1            -13.0886570593       11.1395104154      -25.8350448401  TIP3      3960            0.0000000000
     25348      4106  TIP3      H2            -12.3449730879        9.8742667403      -26.0458225866  TIP3      3960            0.0000000000
     25349      4107  TIP3      OH2           -12.4139410042       10.5943854751      -41.0583660402  TIP3      3961            0.0000000000
     25350      4107  TIP3      H1            -11.9842623574       10.1278349094      -41.7911731234  TIP3      3961            0.0000000000
     25351      4107  TIP3      H2            -11.8383208345       11.3703329482      -40.9835929704  TIP3      3961            0.0000000000
     25352      4108  TIP3      OH2            30.3094593374       10.2351716565      -37.7833108840  TIP3      3962            0.0000000000
     25353      4108  TIP3      H1             29.4850716813       10.4331978677      -37.3257930722  TIP3      3962            0.0000000000
     25354      4108  TIP3      H2             30.0700277073       10.3758447151      -38.7151187121  TIP3      3962            0.0000000000
     25355      4109  TIP3      OH2           -15.2050418504       25.4256559363      -35.8779864424  TIP3      3963            0.0000000000
     25356      4109  TIP3      H1            -14.4680185181       25.0220105666      -36.3955455573  TIP3      3963            0.0000000000
     25357      4109  TIP3      H2            -14.7788701661       25.6690881942      -35.0464031561  TIP3      3963            0.0000000000
     25358      4110  TIP3      OH2           -29.4530865016        9.1806025816      -29.5104225295  TIP3      3964            0.0000000000
     25359      4110  TIP3      H1            -30.1495843903        9.6203269323      -28.9736644123  TIP3      3964            0.0000000000
     25360      4110  TIP3      H2            -29.8236845684        9.2964055152      -30.4005730434  TIP3      3964            0.0000000000
     25361      4111  TIP3      OH2           -28.0422047469       22.0036448294      -25.6138922729  TIP3      3965            0.0000000000
     25362      4111  TIP3      H1            -28.8763581342       22.3692255668      -25.9604963153  TIP3      3965            0.0000000000
     25363      4111  TIP3      H2            -28.3492302020       21.6202066765      -24.7749557659  TIP3      3965            0.0000000000
     25364      4112  TIP3      OH2           -24.7247057466       23.8232130962      -28.8823184853  TIP3      3966            0.0000000000
     25365      4112  TIP3      H1            -24.9879479343       24.6338922523      -29.3804021487  TIP3      3966            0.0000000000
     25366      4112  TIP3      H2            -23.8456809426       23.6300600956      -29.2615283181  TIP3      3966            0.0000000000
     25367      4113  TIP3      OH2           -21.0432505041       24.8572058532      -26.4663858236  TIP3      3967            0.0000000000
     25368      4113  TIP3      H1            -20.8347145000       24.4524770113      -25.5863364617  TIP3      3967            0.0000000000
     25369      4113  TIP3      H2            -20.1616803276       25.2531715168      -26.6523542298  TIP3      3967            0.0000000000
     25370      4114  TIP3      OH2           -18.6359838997       26.2583162481      -26.9760975548  TIP3      3968            0.0000000000
     25371      4114  TIP3      H1            -18.0076129861       25.5824043144      -27.2910608998  TIP3      3968            0.0000000000
     25372      4114  TIP3      H2            -18.3044853209       26.3814645370      -26.0557305856  TIP3      3968            0.0000000000
     25373      4115  TIP3      OH2           -13.8902336709        8.7995694123      -27.1825034195  TIP3      3969            0.0000000000
     25374      4115  TIP3      H1            -14.5924735677        8.6958290234      -27.8506108899  TIP3      3969            0.0000000000
     25375      4115  TIP3      H2            -13.2215913919        8.1677180728      -27.4939191860  TIP3      3969            0.0000000000
     25376      4116  TIP3      OH2           -27.4684906222       26.7542383817      -29.1210472951  TIP3      3970            0.0000000000
     25377      4116  TIP3      H1            -28.1528130367       27.0999640798      -29.7207520946  TIP3      3970            0.0000000000
     25378      4116  TIP3      H2            -28.0267598090       26.5491456979      -28.3500039296  TIP3      3970            0.0000000000
     25379      4117  TIP3      OH2           -25.1324396904       26.0380554940      -30.3160008023  TIP3      3971            0.0000000000
     25380      4117  TIP3      H1            -26.0366812741       26.2210319335      -29.9591735804  TIP3      3971            0.0000000000
     25381      4117  TIP3      H2            -25.1172064797       26.6143258032      -31.1005591513  TIP3      3971            0.0000000000
     25382      4118  TIP3      OH2           -20.6113283912       25.6505285099      -30.4551468955  TIP3      3972            0.0000000000
     25383      4118  TIP3      H1            -21.0636684618       25.9305031101      -31.2851760281  TIP3      3972            0.0000000000
     25384      4118  TIP3      H2            -20.2397547349       26.5154999880      -30.1879161268  TIP3      3972            0.0000000000
     25385      4119  TIP3      OH2           -18.3923680948       24.4010923382      -29.4739292786  TIP3      3973            0.0000000000
     25386      4119  TIP3      H1            -19.0662475953       24.7513482568      -30.0909528309  TIP3      3973            0.0000000000
     25387      4119  TIP3      H2            -17.6672607664       25.0062881945      -29.7305973130  TIP3      3973            0.0000000000
     25388      4120  TIP3      OH2           -16.4463941159       26.2444888135      -30.0663988171  TIP3      3974            0.0000000000
     25389      4120  TIP3      H1            -16.1450533058       27.1673656076      -29.9247036355  TIP3      3974            0.0000000000
     25390      4120  TIP3      H2            -15.8705381710       25.9493043030      -30.7965294900  TIP3      3974            0.0000000000
     25391      4121  TIP3      OH2           -27.7045904975       25.0232218949      -32.1382670502  TIP3      3975            0.0000000000
     25392      4121  TIP3      H1            -27.6833785456       24.6763012178      -31.2140198940  TIP3      3975            0.0000000000
     25393      4121  TIP3      H2            -26.8370958169       24.6959517247      -32.4653593959  TIP3      3975            0.0000000000
     25394      4122  TIP3      OH2           -25.5686081840       23.7528316411      -33.5069204886  TIP3      3976            0.0000000000
     25395      4122  TIP3      H1            -25.6914755833       22.8250169551      -33.2233816940  TIP3      3976            0.0000000000
     25396      4122  TIP3      H2            -24.6847597302       23.9059411809      -33.0986009103  TIP3      3976            0.0000000000
     25397      4123  TIP3      OH2           -23.4839859509       23.7830827921      -31.8424848302  TIP3      3977            0.0000000000
     25398      4123  TIP3      H1            -23.0586302673       22.9076768003      -31.8809847020  TIP3      3977            0.0000000000
     25399      4123  TIP3      H2            -23.1275682840       24.1619323066      -31.0245443157  TIP3      3977            0.0000000000
     25400      4124  TIP3      OH2           -19.4875551602        9.4757127306      -33.2568360144  TIP3      3978            0.0000000000
     25401      4124  TIP3      H1            -20.3261669080        9.0615386509      -32.9853104904  TIP3      3978            0.0000000000
     25402      4124  TIP3      H2            -19.5345119720        9.3284881661      -34.2206895128  TIP3      3978            0.0000000000
     25403      4125  TIP3      OH2           -14.4366736883        8.0512749083      -33.0511027133  TIP3      3979            0.0000000000
     25404      4125  TIP3      H1            -13.8372599611        8.4013606297      -33.7384049777  TIP3      3979            0.0000000000
     25405      4125  TIP3      H2            -15.2844659329        8.0184432372      -33.5277251660  TIP3      3979            0.0000000000
     25406      4126  TIP3      OH2           -12.9270455503        9.1762840508      -35.3492484590  TIP3      3980            0.0000000000
     25407      4126  TIP3      H1            -12.2627790468        8.5376074102      -35.6903097845  TIP3      3980            0.0000000000
     25408      4126  TIP3      H2            -12.3557471481        9.9369402355      -35.0725961204  TIP3      3980            0.0000000000
     25409      4127  TIP3      OH2           -27.4144394892        8.6197202630      -35.3828100871  TIP3      3981            0.0000000000
     25410      4127  TIP3      H1            -28.2261096633        8.4982795748      -35.9095233402  TIP3      3981            0.0000000000
     25411      4127  TIP3      H2            -27.0316099927        7.7212494366      -35.4692568344  TIP3      3981            0.0000000000
     25412      4128  TIP3      OH2           -28.2694735644        8.2145926300      -40.1490019971  TIP3      3982            0.0000000000
     25413      4128  TIP3      H1            -27.9014063198        9.0663851198      -40.4808541262  TIP3      3982            0.0000000000
     25414      4128  TIP3      H2            -28.8662944506        8.4936581945      -39.4304393438  TIP3      3982            0.0000000000
     25415      4129  TIP3      OH2           -23.0917670306        7.6146485794      -35.4302603460  TIP3      3983            0.0000000000
     25416      4129  TIP3      H1            -22.2458729024        7.8942269320      -35.8119359281  TIP3      3983            0.0000000000
     25417      4129  TIP3      H2            -23.3229016658        8.3542719815      -34.8497156809  TIP3      3983            0.0000000000
     25418      4130  TIP3      OH2           -16.9191855854        7.9146316153      -34.6038578700  TIP3      3984            0.0000000000
     25419      4130  TIP3      H1            -17.5008336683        8.4577986386      -35.1507639431  TIP3      3984            0.0000000000
     25420      4130  TIP3      H2            -17.5610229529        7.2668683078      -34.2232406592  TIP3      3984            0.0000000000
     25421      4131  TIP3      OH2           -15.6952939814        7.9434825817      -38.5954073325  TIP3      3985            0.0000000000
     25422      4131  TIP3      H1            -16.2896871309        8.6660875268      -38.3277260924  TIP3      3985            0.0000000000
     25423      4131  TIP3      H2            -16.2390316437        7.1876690767      -38.2895347029  TIP3      3985            0.0000000000
     25424      4132  TIP3      OH2           -28.2387016447       24.4171828119      -39.0910853699  TIP3      3986            0.0000000000
     25425      4132  TIP3      H1            -29.1931487153       24.3895320091      -39.2631362522  TIP3      3986            0.0000000000
     25426      4132  TIP3      H2            -28.1307155142       25.3904804098      -39.0902047912  TIP3      3986            0.0000000000
     25427      4133  TIP3      OH2           -26.9965356975       10.4363749105      -41.0796161502  TIP3      3987            0.0000000000
     25428      4133  TIP3      H1            -26.4249569302       10.6094055009      -41.8601198173  TIP3      3987            0.0000000000
     25429      4133  TIP3      H2            -26.3277085542       10.4717635938      -40.3563300086  TIP3      3987            0.0000000000
     25430      4134  TIP3      OH2           -20.7522839090       10.7177243003      -38.3932779397  TIP3      3988            0.0000000000
     25431      4134  TIP3      H1            -21.4048776257       10.7499889746      -39.1340940920  TIP3      3988            0.0000000000
     25432      4134  TIP3      H2            -20.8699288955       11.6265754511      -38.0364535208  TIP3      3988            0.0000000000
     25433      4135  TIP3      OH2           -19.4852040892       26.5299435785      -40.5143031936  TIP3      3989            0.0000000000
     25434      4135  TIP3      H1            -18.6281144903       26.7760670122      -40.9042172527  TIP3      3989            0.0000000000
     25435      4135  TIP3      H2            -19.5475931327       25.6301359848      -40.9095161650  TIP3      3989            0.0000000000
     25436      4136  TIP3      OH2           -13.3968603762       24.4146001128      -37.4810159315  TIP3      3990            0.0000000000
     25437      4136  TIP3      H1            -13.3762638347       23.6596671974      -38.1205765894  TIP3      3990            0.0000000000
     25438      4136  TIP3      H2            -13.5236803101       25.1514696839      -38.1234686265  TIP3      3990            0.0000000000
     25439      4137  TIP3      OH2           -27.6963822297        9.3059763923      -25.9529997903  TIP3      3991            0.0000000000
     25440      4137  TIP3      H1            -28.2603152876        8.5135804708      -25.8906214605  TIP3      3991            0.0000000000
     25441      4137  TIP3      H2            -26.8397354195        8.8728306359      -25.7505889285  TIP3      3991            0.0000000000
     25442      4138  TIP3      OH2           -25.4630266744        7.9969513069      -25.0399946422  TIP3      3992            0.0000000000
     25443      4138  TIP3      H1            -24.5472447137        8.0979685614      -25.3605735457  TIP3      3992            0.0000000000
     25444      4138  TIP3      H2            -25.3169833631        7.3235494028      -24.3433407893  TIP3      3992            0.0000000000
     25445      4139  TIP3      OH2           -26.7676497304       25.4034047773      -41.9506732349  TIP3      3993            0.0000000000
     25446      4139  TIP3      H1            -27.4141554492       26.0435403353      -41.6206208563  TIP3      3993            0.0000000000
     25447      4139  TIP3      H2            -26.5913290585       24.8805772553      -41.1549956120  TIP3      3993            0.0000000000
     25448      4140  TIP3      OH2           -17.0950394646        8.1260376688      -24.2205737982  TIP3      3994            0.0000000000
     25449      4140  TIP3      H1            -17.2952640751        7.6247729239      -23.3988052202  TIP3      3994            0.0000000000
     25450      4140  TIP3      H2            -16.2651841532        7.6883363433      -24.5267406288  TIP3      3994            0.0000000000
     25451      4141  TIP3      OH2           -14.0346565556       23.6022398825      -25.8121999043  TIP3      3995            0.0000000000
     25452      4141  TIP3      H1            -14.7692478453       23.6567186356      -26.4678811721  TIP3      3995            0.0000000000
     25453      4141  TIP3      H2            -14.0741727560       24.4951110672      -25.4228925304  TIP3      3995            0.0000000000
     25454      4142  TIP3      OH2             0.7722837119       17.7991673455      -35.7685702516  TIP3      3996            0.0000000000
     25455      4142  TIP3      H1              0.4869871331       18.6788992140      -36.1151242203  TIP3      3996            0.0000000000
     25456      4142  TIP3      H2              0.0607947678       17.2389258954      -36.1112546952  TIP3      3996            0.0000000000
     25457      4143  TIP3      OH2            -0.5916093246       16.4242213366      -32.5668991738  TIP3      3997            0.0000000000
     25458      4143  TIP3      H1             -0.6129793931       16.1062282939      -31.6430728338  TIP3      3997            0.0000000000
     25459      4143  TIP3      H2             -1.3719033476       16.0154941482      -32.9866117831  TIP3      3997            0.0000000000
     25460      4144  TIP3      OH2            -8.5217502986       16.4761714859      -30.9807362013  TIP3      3998            0.0000000000
     25461      4144  TIP3      H1             -8.6675907406       15.8076911749      -30.2964835089  TIP3      3998            0.0000000000
     25462      4144  TIP3      H2             -7.5500590633       16.5740401269      -30.9741079906  TIP3      3998            0.0000000000
     25463      4145  TIP3      OH2             2.9551405040       19.7331122144      -33.6186426088  TIP3      3999            0.0000000000
     25464      4145  TIP3      H1              2.7201238821       18.9851328874      -33.0502340204  TIP3      3999            0.0000000000
     25465      4145  TIP3      H2              3.1506073170       20.4392780424      -32.9735162104  TIP3      3999            0.0000000000
     25466      4146  TIP3      OH2            -7.0819931511       20.9375110177      -32.1853755729  TIP3      4000            0.0000000000
     25467      4146  TIP3      H1             -7.4752995154       20.1723975386      -32.6624737641  TIP3      4000            0.0000000000
     25468      4146  TIP3      H2             -6.1355201334       20.7997821961      -32.4036890335  TIP3      4000            0.0000000000
     25469      4147  TIP3      OH2           -10.5847406877       14.2671107250      -36.6810491280  TIP3      4001            0.0000000000
     25470      4147  TIP3      H1            -11.0516935369       15.0602272747      -36.3721687841  TIP3      4001            0.0000000000
     25471      4147  TIP3      H2            -11.0658036798       14.1066006701      -37.5102806046  TIP3      4001            0.0000000000
     25472      4148  TIP3      OH2           -10.4180196805       16.5352319602      -34.3906763655  TIP3      4002            0.0000000000
     25473      4148  TIP3      H1             -9.9229515149       15.7038057031      -34.1725083036  TIP3      4002            0.0000000000
     25474      4148  TIP3      H2             -9.7303869966       17.2244237084      -34.4195840517  TIP3      4002            0.0000000000
     25475      4149  TIP3      OH2             0.3382852601       25.1302210860      -33.6038608953  TIP3      4003            0.0000000000
     25476      4149  TIP3      H1              0.9262266943       24.5785462895      -34.1734636078  TIP3      4003            0.0000000000
     25477      4149  TIP3      H2             -0.0756893058       24.4156117909      -33.1100697610  TIP3      4003            0.0000000000
     25478      4150  TIP3      OH2            -2.5708684172       18.9729074265      -31.4105735841  TIP3      4004            0.0000000000
     25479      4150  TIP3      H1             -2.1211997209       18.8384751614      -32.2580197053  TIP3      4004            0.0000000000
     25480      4150  TIP3      H2             -1.8167371772       19.2555792725      -30.8544090521  TIP3      4004            0.0000000000
     25481      4151  TIP3      OH2             6.4002009379       10.7399515975      -31.3447940485  TIP3      4005            0.0000000000
     25482      4151  TIP3      H1              6.3928713414       11.3369345997      -30.5700284653  TIP3      4005            0.0000000000
     25483      4151  TIP3      H2              7.3076440682       10.8745570334      -31.6570607130  TIP3      4005            0.0000000000
     25484      4152  TIP3      OH2             1.2911577434       13.8695866870      -31.2578630198  TIP3      4006            0.0000000000
     25485      4152  TIP3      H1              1.3915983722       12.9421573323      -30.9835615925  TIP3      4006            0.0000000000
     25486      4152  TIP3      H2              1.0459919806       13.7253405670      -32.1998079096  TIP3      4006            0.0000000000
     25487      4153  TIP3      OH2            -5.7474402313       11.5176751663      -34.4679691561  TIP3      4007            0.0000000000
     25488      4153  TIP3      H1             -5.7175181746       12.3279628836      -35.0204180119  TIP3      4007            0.0000000000
     25489      4153  TIP3      H2             -6.2871388779       10.9482527173      -35.0598120905  TIP3      4007            0.0000000000
     25490      4154  TIP3      OH2             1.7947716376       12.1588710112      -35.8473480244  TIP3      4008            0.0000000000
     25491      4154  TIP3      H1              2.3514697589       11.8176316966      -35.1108328780  TIP3      4008            0.0000000000
     25492      4154  TIP3      H2              2.3273345012       12.9182078072      -36.1661581396  TIP3      4008            0.0000000000
     25493      4155  TIP3      OH2            -9.4608717444       14.0689347174      -33.5758480604  TIP3      4009            0.0000000000
     25494      4155  TIP3      H1             -8.8649906515       13.6563132772      -32.9187490404  TIP3      4009            0.0000000000
     25495      4155  TIP3      H2             -9.1318250606       13.6637593807      -34.4060833234  TIP3      4009            0.0000000000
     25496      4156  TIP3      OH2            -5.0393325269       15.6837058203      -34.2367833517  TIP3      4010            0.0000000000
     25497      4156  TIP3      H1             -4.1047760291       15.4014869355      -34.1606251152  TIP3      4010            0.0000000000
     25498      4156  TIP3      H2             -5.4032719954       14.9531018748      -34.7849397260  TIP3      4010            0.0000000000
     25499      4157  TIP3      OH2             6.3242650997       12.1474806045      -28.6984467671  TIP3      4011            0.0000000000
     25500      4157  TIP3      H1              5.9816051311       12.9647660122      -29.1337894473  TIP3      4011            0.0000000000
     25501      4157  TIP3      H2              6.4756273806       12.4955559022      -27.8037864917  TIP3      4011            0.0000000000
     25502      4158  TIP3      OH2            -6.8099313423       10.7603918313      -30.3202738389  TIP3      4012            0.0000000000
     25503      4158  TIP3      H1             -7.2809430536       11.3454151776      -30.9439117428  TIP3      4012            0.0000000000
     25504      4158  TIP3      H2             -7.4050011996       10.7898338899      -29.5397721325  TIP3      4012            0.0000000000
     25505      4159  TIP3      OH2            -0.0824081053       20.1316532954      -36.7526116569  TIP3      4013            0.0000000000
     25506      4159  TIP3      H1             -0.3443583460       20.1841595111      -37.6909889389  TIP3      4013            0.0000000000
     25507      4159  TIP3      H2             -0.3602916514       21.0264906409      -36.4395892651  TIP3      4013            0.0000000000
     25508      4160  TIP3      OH2            -4.9677728112       18.4786803067      -30.4431046860  TIP3      4014            0.0000000000
     25509      4160  TIP3      H1             -5.3837304408       19.2103469397      -29.9235461710  TIP3      4014            0.0000000000
     25510      4160  TIP3      H2             -4.1877964784       18.9178766885      -30.8450736134  TIP3      4014            0.0000000000
     25511      4161  TIP3      OH2             3.6272023437       11.6860663387      -33.7352546979  TIP3      4015            0.0000000000
     25512      4161  TIP3      H1              3.2197299461       11.1746538468      -33.0218047013  TIP3      4015            0.0000000000
     25513      4161  TIP3      H2              4.5626086688       11.7296692917      -33.4638876526  TIP3      4015            0.0000000000
     25514      4162  TIP3      OH2            -7.3812065041       12.7287609939      -32.2874762703  TIP3      4016            0.0000000000
     25515      4162  TIP3      H1             -6.7674580886       13.2877052941      -31.7597241872  TIP3      4016            0.0000000000
     25516      4162  TIP3      H2             -6.8038494784       12.4496209998      -33.0298018049  TIP3      4016            0.0000000000
     25517      4163  TIP3      OH2            -6.0460946184       20.5304966510      -29.0738570680  TIP3      4017            0.0000000000
     25518      4163  TIP3      H1             -6.2958280759       21.2592046186      -29.6720119912  TIP3      4017            0.0000000000
     25519      4163  TIP3      H2             -6.9435727416       20.3127566061      -28.7117221489  TIP3      4017            0.0000000000
     25520      4164  TIP3      OH2           -10.3039852133       19.9565678613      -38.5837852857  TIP3      4018            0.0000000000
     25521      4164  TIP3      H1            -10.2403912769       20.5322839071      -39.3723265430  TIP3      4018            0.0000000000
     25522      4164  TIP3      H2            -10.2586795360       20.6274016569      -37.8546796471  TIP3      4018            0.0000000000
     25523      4165  TIP3      OH2             3.5838037768       21.7165823181      -31.7060259293  TIP3      4019            0.0000000000
     25524      4165  TIP3      H1              2.6285020842       21.7950515552      -31.5014131183  TIP3      4019            0.0000000000
     25525      4165  TIP3      H2              3.6750772290       22.5864408904      -32.1280471240  TIP3      4019            0.0000000000
     25526      4166  TIP3      OH2             3.6525617468       10.4600624034      -30.4859951646  TIP3      4020            0.0000000000
     25527      4166  TIP3      H1              2.8577378381       10.6477603659      -31.0290388513  TIP3      4020            0.0000000000
     25528      4166  TIP3      H2              4.4021227406       10.7428093270      -31.0338765669  TIP3      4020            0.0000000000
     25529      4167  TIP3      OH2            -3.8318751479        8.0266826968      -33.2198293014  TIP3      4021            0.0000000000
     25530      4167  TIP3      H1             -4.1118997790        7.0939508192      -33.1568519178  TIP3      4021            0.0000000000
     25531      4167  TIP3      H2             -4.5465172259        8.4531433259      -32.6831891199  TIP3      4021            0.0000000000
     25532      4168  TIP3      OH2             1.7139155095       23.6253763591      -35.2755711477  TIP3      4022            0.0000000000
     25533      4168  TIP3      H1              2.0303016646       22.7751979988      -35.6652453162  TIP3      4022            0.0000000000
     25534      4168  TIP3      H2              2.4788076714       24.2132740844      -35.4669825567  TIP3      4022            0.0000000000
     25535      4169  TIP3      OH2             2.7962081545       21.4683741193      -36.7492165834  TIP3      4023            0.0000000000
     25536      4169  TIP3      H1              2.7778206433       20.8216760305      -37.4848120661  TIP3      4023            0.0000000000
     25537      4169  TIP3      H2              2.6593260718       20.8654861958      -35.9977178316  TIP3      4023            0.0000000000
     25538      4170  TIP3      OH2             4.6402307215       19.8351474233      -27.8608564679  TIP3      4024            0.0000000000
     25539      4170  TIP3      H1              4.6457378033       19.1875771183      -28.6054655350  TIP3      4024            0.0000000000
     25540      4170  TIP3      H2              4.6971350016       20.6625386809      -28.3691088213  TIP3      4024            0.0000000000
     25541      4171  TIP3      OH2            -0.8905676304       16.9912034989      -38.3571633930  TIP3      4025            0.0000000000
     25542      4171  TIP3      H1             -1.5243911720       17.7415137328      -38.4282883403  TIP3      4025            0.0000000000
     25543      4171  TIP3      H2             -0.0518229627       17.3672185638      -38.6982779556  TIP3      4025            0.0000000000
     25544      4172  TIP3      OH2            -0.9095939576       16.0487490945      -41.0628841365  TIP3      4026            0.0000000000
     25545      4172  TIP3      H1             -0.4122170918       16.2293972252      -40.2410158625  TIP3      4026            0.0000000000
     25546      4172  TIP3      H2             -0.4545123457       15.2638344109      -41.3989687625  TIP3      4026            0.0000000000
     25547      4173  TIP3      OH2             6.5425607903       16.5216595482      -29.8373903472  TIP3      4027            0.0000000000
     25548      4173  TIP3      H1              5.7696091565       16.9762979217      -30.2189432877  TIP3      4027            0.0000000000
     25549      4173  TIP3      H2              7.2170509010       16.7386980727      -30.5124554538  TIP3      4027            0.0000000000
     25550      4174  TIP3      OH2             3.1059774774       17.1726459657      -37.1224802934  TIP3      4028            0.0000000000
     25551      4174  TIP3      H1              2.3337974483       17.4431545032      -36.5698902515  TIP3      4028            0.0000000000
     25552      4174  TIP3      H2              3.6444835048       16.7056231843      -36.4442535203  TIP3      4028            0.0000000000
     25553      4175  TIP3      OH2             2.9276178878       15.3957828507      -27.8996028898  TIP3      4029            0.0000000000
     25554      4175  TIP3      H1              2.9803164700       16.1690237224      -27.2948795591  TIP3      4029            0.0000000000
     25555      4175  TIP3      H2              2.3678011905       15.7626963142      -28.6128419718  TIP3      4029            0.0000000000
     25556      4176  TIP3      OH2            -6.2531014803       17.6075568685      -35.7428713722  TIP3      4030            0.0000000000
     25557      4176  TIP3      H1             -6.1073004393       17.3566995324      -36.6760066968  TIP3      4030            0.0000000000
     25558      4176  TIP3      H2             -5.7706913125       16.9071319265      -35.2580434756  TIP3      4030            0.0000000000
     25559      4177  TIP3      OH2            -4.4276807261       20.7464410394      -32.6760938146  TIP3      4031            0.0000000000
     25560      4177  TIP3      H1             -4.1686962826       20.6838690112      -33.6057141319  TIP3      4031            0.0000000000
     25561      4177  TIP3      H2             -3.8031858489       20.1436098734      -32.2270005998  TIP3      4031            0.0000000000
     25562      4178  TIP3      OH2            -5.8519300825       16.3186748762      -31.6283902290  TIP3      4032            0.0000000000
     25563      4178  TIP3      H1             -5.6069734929       16.3757406204      -32.5790352735  TIP3      4032            0.0000000000
     25564      4178  TIP3      H2             -5.2966534283       17.0338660543      -31.2245940117  TIP3      4032            0.0000000000
     25565      4179  TIP3      OH2             1.0167861981       22.1336134785      -31.2030650744  TIP3      4033            0.0000000000
     25566      4179  TIP3      H1              0.7631977073       22.8741138062      -30.6253643004  TIP3      4033            0.0000000000
     25567      4179  TIP3      H2              0.6365590170       21.3778707262      -30.7192979339  TIP3      4033            0.0000000000
     25568      4180  TIP3      OH2            -4.5314927127       20.8317151442      -26.8241769197  TIP3      4034            0.0000000000
     25569      4180  TIP3      H1             -5.2644657147       21.3888452142      -26.4725423045  TIP3      4034            0.0000000000
     25570      4180  TIP3      H2             -4.8992779241       20.6186065218      -27.7114143271  TIP3      4034            0.0000000000
     25571      4181  TIP3      OH2             1.5239989386       16.7832839985      -39.3302511442  TIP3      4035            0.0000000000
     25572      4181  TIP3      H1              2.1905653355       17.0384697845      -38.6575008595  TIP3      4035            0.0000000000
     25573      4181  TIP3      H2              1.9370981329       17.1339281474      -40.1539600527  TIP3      4035            0.0000000000
     25574      4182  TIP3      OH2            -7.6012726475       16.7773857217      -27.8650155673  TIP3      4036            0.0000000000
     25575      4182  TIP3      H1             -7.4018996727       17.6681645463      -27.5446843410  TIP3      4036            0.0000000000
     25576      4182  TIP3      H2             -8.4121604143       16.5930169981      -27.3531344384  TIP3      4036            0.0000000000
     25577      4183  TIP3      OH2            -0.7564672965       22.5611147696      -35.7504103249  TIP3      4037            0.0000000000
     25578      4183  TIP3      H1             -0.1187806729       23.1765735388      -35.3515816542  TIP3      4037            0.0000000000
     25579      4183  TIP3      H2             -1.0744510496       23.0822340677      -36.4952395086  TIP3      4037            0.0000000000
     25580      4184  TIP3      OH2            -6.5576407556       22.4670896574      -26.2679872497  TIP3      4038            0.0000000000
     25581      4184  TIP3      H1             -6.6107655550       22.8573190508      -27.1693170252  TIP3      4038            0.0000000000
     25582      4184  TIP3      H2             -7.4934092921       22.2709679474      -26.0584332642  TIP3      4038            0.0000000000
     25583      4185  TIP3      OH2             5.4122514158        8.1387331156      -39.0692081458  TIP3      4039            0.0000000000
     25584      4185  TIP3      H1              4.4411789642        8.2387736324      -39.2038095882  TIP3      4039            0.0000000000
     25585      4185  TIP3      H2              5.7393856745        8.8998890532      -39.5830551348  TIP3      4039            0.0000000000
     25586      4186  TIP3      OH2            -6.7140479924       16.5634673760      -38.3281563516  TIP3      4040            0.0000000000
     25587      4186  TIP3      H1             -7.3132272971       17.2987995565      -38.6068396810  TIP3      4040            0.0000000000
     25588      4186  TIP3      H2             -7.2856198225       15.7782357764      -38.2854127142  TIP3      4040            0.0000000000
     25589      4187  TIP3      OH2             6.4572385555       22.5610683659      -41.4571022863  TIP3      4041            0.0000000000
     25590      4187  TIP3      H1              6.8682346104       23.4286189058      -41.2691105472  TIP3      4041            0.0000000000
     25591      4187  TIP3      H2              7.2366041858       21.9707370697      -41.3643424526  TIP3      4041            0.0000000000
     25592      4188  TIP3      OH2           -10.7293654344       19.2916872673      -29.0656969736  TIP3      4042            0.0000000000
     25593      4188  TIP3      H1            -11.3488272144       19.2533094099      -29.8123925696  TIP3      4042            0.0000000000
     25594      4188  TIP3      H2            -10.2763565301       18.4365115359      -29.1673332974  TIP3      4042            0.0000000000
     25595      4189  TIP3      OH2           -10.7912544112       21.8388657205      -32.5039923863  TIP3      4043            0.0000000000
     25596      4189  TIP3      H1             -9.9756359803       21.4864460313      -32.1274091667  TIP3      4043            0.0000000000
     25597      4189  TIP3      H2            -10.9608807920       22.6239165680      -31.9536934651  TIP3      4043            0.0000000000
     25598      4190  TIP3      OH2             7.1945842908       22.4881472214      -26.4194459010  TIP3      4044            0.0000000000
     25599      4190  TIP3      H1              7.1395332977       21.5224650691      -26.5017473080  TIP3      4044            0.0000000000
     25600      4190  TIP3      H2              6.4393128247       22.6369117586      -25.8129952020  TIP3      4044            0.0000000000
     25601      4191  TIP3      OH2            -2.0267346664       21.9444742555      -27.3884879581  TIP3      4045            0.0000000000
     25602      4191  TIP3      H1             -1.8453537141       22.7122226060      -26.8105608207  TIP3      4045            0.0000000000
     25603      4191  TIP3      H2             -2.9411286817       21.6771316397      -27.1628449802  TIP3      4045            0.0000000000
     25604      4192  TIP3      OH2            -1.1326688778       25.8811897829      -37.8100183694  TIP3      4046            0.0000000000
     25605      4192  TIP3      H1             -1.1799448026       26.0252807459      -38.7798398903  TIP3      4046            0.0000000000
     25606      4192  TIP3      H2             -1.1172904792       26.7946956220      -37.4506176267  TIP3      4046            0.0000000000
     25607      4193  TIP3      OH2            -7.6558883468       24.4448161045      -35.7465876482  TIP3      4047            0.0000000000
     25608      4193  TIP3      H1             -7.3901904665       23.9696721024      -34.9194575494  TIP3      4047            0.0000000000
     25609      4193  TIP3      H2             -8.5148102689       24.0387530171      -35.9375881444  TIP3      4047            0.0000000000
     25610      4194  TIP3      OH2             1.7928457998       25.6198043998      -40.9621616037  TIP3      4048            0.0000000000
     25611      4194  TIP3      H1              2.4315300659       24.9396983288      -41.2463812945  TIP3      4048            0.0000000000
     25612      4194  TIP3      H2              1.7170753948       25.4503983258      -40.0016282444  TIP3      4048            0.0000000000
     25613      4195  TIP3      OH2             1.6738204997       25.2530225118      -38.1674743654  TIP3      4049            0.0000000000
     25614      4195  TIP3      H1              0.7398423324       25.3501017972      -37.8959144649  TIP3      4049            0.0000000000
     25615      4195  TIP3      H2              2.0243504215       24.6545866614      -37.4906637779  TIP3      4049            0.0000000000
     25616      4196  TIP3      OH2             4.4630320383       13.9050505335      -26.1657021716  TIP3      4050            0.0000000000
     25617      4196  TIP3      H1              3.6512815756       14.2698295900      -26.5574468511  TIP3      4050            0.0000000000
     25618      4196  TIP3      H2              4.1847022261       13.1397553863      -25.6360830825  TIP3      4050            0.0000000000
     25619      4197  TIP3      OH2            -8.4500477825       20.3397782496      -28.0111712657  TIP3      4051            0.0000000000
     25620      4197  TIP3      H1             -8.5051268974       19.9502659716      -27.1129656375  TIP3      4051            0.0000000000
     25621      4197  TIP3      H2             -9.3365652369       20.1162174993      -28.3820291143  TIP3      4051            0.0000000000
     25622      4198  TIP3      OH2            -5.9386328970        8.8634388866      -31.9120605430  TIP3      4052            0.0000000000
     25623      4198  TIP3      H1             -6.8506922640        8.8459503353      -32.2667829330  TIP3      4052            0.0000000000
     25624      4198  TIP3      H2             -6.0562288251        9.5534937462      -31.2219555472  TIP3      4052            0.0000000000
     25625      4199  TIP3      OH2            -1.0647911686        8.5791761078      -29.0313703734  TIP3      4053            0.0000000000
     25626      4199  TIP3      H1             -0.5074722418        8.1928121126      -28.3184932256  TIP3      4053            0.0000000000
     25627      4199  TIP3      H2             -1.9507757478        8.5302975611      -28.6194867959  TIP3      4053            0.0000000000
     25628      4200  TIP3      OH2             2.0787133013       12.8015822560      -27.9461694086  TIP3      4054            0.0000000000
     25629      4200  TIP3      H1              1.4210921310       12.6839100559      -27.2266234682  TIP3      4054            0.0000000000
     25630      4200  TIP3      H2              2.2995459303       13.7496649296      -27.8709081132  TIP3      4054            0.0000000000
     25631      4201  TIP3      OH2             2.8285458454       17.7144684934      -41.4057272986  TIP3      4055            0.0000000000
     25632      4201  TIP3      H1              2.9038430257       17.3876890674      -42.3130176233  TIP3      4055            0.0000000000
     25633      4201  TIP3      H2              3.5978516023       18.2991016276      -41.3369128634  TIP3      4055            0.0000000000
     25634      4202  TIP3      OH2            -1.4272705283       11.8881688156      -41.3120651706  TIP3      4056            0.0000000000
     25635      4202  TIP3      H1             -1.8010360688       11.4515336519      -40.5229189034  TIP3      4056            0.0000000000
     25636      4202  TIP3      H2             -2.0611503190       11.6944102315      -42.0186066467  TIP3      4056            0.0000000000
     25637      4203  TIP3      OH2            -5.6360015529       13.8596269325      -30.5777771306  TIP3      4057            0.0000000000
     25638      4203  TIP3      H1             -6.4074187955       13.9324260909      -29.9843369958  TIP3      4057            0.0000000000
     25639      4203  TIP3      H2             -5.6728818201       14.7225115027      -31.0402053934  TIP3      4057            0.0000000000
     25640      4204  TIP3      OH2            -5.8748651129       13.6960765112      -36.0102680633  TIP3      4058            0.0000000000
     25641      4204  TIP3      H1             -6.8402302712       13.4839026390      -36.0222921834  TIP3      4058            0.0000000000
     25642      4204  TIP3      H2             -5.6081127459       13.5401986952      -36.9479622095  TIP3      4058            0.0000000000
     25643      4205  TIP3      OH2            -0.0721770016       14.9139478447      -36.9213246856  TIP3      4059            0.0000000000
     25644      4205  TIP3      H1             -0.4325456113       15.6537151433      -37.4641306492  TIP3      4059            0.0000000000
     25645      4205  TIP3      H2              0.4973525226       14.4930578643      -37.6054350566  TIP3      4059            0.0000000000
     25646      4206  TIP3      OH2            -1.3707942144       15.0740326527      -25.4908425582  TIP3      4060            0.0000000000
     25647      4206  TIP3      H1             -1.6747616664       14.1711961986      -25.2735932453  TIP3      4060            0.0000000000
     25648      4206  TIP3      H2             -0.5871174982       15.1689835631      -24.9349121887  TIP3      4060            0.0000000000
     25649      4207  TIP3      OH2             0.7898537819       14.3010412724      -33.9609122060  TIP3      4061            0.0000000000
     25650      4207  TIP3      H1              0.5540715396       15.1787672636      -34.3166999334  TIP3      4061            0.0000000000
     25651      4207  TIP3      H2              0.7982079995       13.7659043457      -34.7701493414  TIP3      4061            0.0000000000
     25652      4208  TIP3      OH2            -8.2306630655       13.8135551183      -29.5115014373  TIP3      4062            0.0000000000
     25653      4208  TIP3      H1             -8.0464283725       14.2740098130      -28.6799209221  TIP3      4062            0.0000000000
     25654      4208  TIP3      H2             -8.5284632227       12.9419608601      -29.1845243126  TIP3      4062            0.0000000000
     25655      4209  TIP3      OH2            -4.9402515177       11.8895641419      -41.6522880743  TIP3      4063            0.0000000000
     25656      4209  TIP3      H1             -5.2034709269       11.2607810520      -40.9533843774  TIP3      4063            0.0000000000
     25657      4209  TIP3      H2             -5.1948878493       12.7500979264      -41.2596829850  TIP3      4063            0.0000000000
     25658      4210  TIP3      OH2           -11.2969338961       11.2167278154      -34.6958540060  TIP3      4064            0.0000000000
     25659      4210  TIP3      H1            -10.5430732360       11.1890948565      -34.0774255321  TIP3      4064            0.0000000000
     25660      4210  TIP3      H2            -11.0084055768       11.8050875312      -35.4100389681  TIP3      4064            0.0000000000
     25661      4211  TIP3      OH2           -10.1569698890       11.8992201283      -39.8955254615  TIP3      4065            0.0000000000
     25662      4211  TIP3      H1             -9.5870990928       12.2731772301      -40.5963079411  TIP3      4065            0.0000000000
     25663      4211  TIP3      H2            -10.7313324978       12.6745163032      -39.7175897308  TIP3      4065            0.0000000000
     25664      4212  TIP3      OH2            -0.0385591476       15.8358594424      -29.9323181177  TIP3      4066            0.0000000000
     25665      4212  TIP3      H1              0.5651525439       15.1808897923      -30.3515334064  TIP3      4066            0.0000000000
     25666      4212  TIP3      H2             -0.5688907454       15.2583744042      -29.3351211200  TIP3      4066            0.0000000000
     25667      4213  TIP3      OH2            -2.6962461557       11.2117249612      -34.8598726309  TIP3      4067            0.0000000000
     25668      4213  TIP3      H1             -3.6595658336       11.3043234282      -34.7234370021  TIP3      4067            0.0000000000
     25669      4213  TIP3      H2             -2.3925025861       10.9435341999      -33.9743837913  TIP3      4067            0.0000000000
     25670      4214  TIP3      OH2            -8.4080165788       12.8046919392      -35.7946888567  TIP3      4068            0.0000000000
     25671      4214  TIP3      H1             -9.1138705316       13.2631234403      -36.2985594500  TIP3      4068            0.0000000000
     25672      4214  TIP3      H2             -8.3586370220       11.9238384615      -36.2330574794  TIP3      4068            0.0000000000
     25673      4215  TIP3      OH2            -5.1231008360       13.4543562295      -38.5592027437  TIP3      4069            0.0000000000
     25674      4215  TIP3      H1             -4.2491419386       13.7962929959      -38.3115645541  TIP3      4069            0.0000000000
     25675      4215  TIP3      H2             -5.3741480330       14.0139941448      -39.3273381845  TIP3      4069            0.0000000000
     25676      4216  TIP3      OH2             1.3516178473       10.7758654017      -31.9690635848  TIP3      4070            0.0000000000
     25677      4216  TIP3      H1              0.6037106388       10.5503866838      -31.3909499552  TIP3      4070            0.0000000000
     25678      4216  TIP3      H2              1.2763070427       10.0737350919      -32.6503191837  TIP3      4070            0.0000000000
     25679      4217  TIP3      OH2            -5.8045225124       14.5796445700      -40.9059037210  TIP3      4071            0.0000000000
     25680      4217  TIP3      H1             -6.3847875395       14.4651364610      -41.6840025036  TIP3      4071            0.0000000000
     25681      4217  TIP3      H2             -4.9889614163       14.9639278481      -41.3043461003  TIP3      4071            0.0000000000
     25682      4218  TIP3      OH2             4.1410576599       26.2152309255      -24.9597792360  TIP3      4072            0.0000000000
     25683      4218  TIP3      H1              4.5351778303       26.5694980266      -25.7850473341  TIP3      4072            0.0000000000
     25684      4218  TIP3      H2              4.9487145860       25.9084623835      -24.5224007360  TIP3      4072            0.0000000000
     25685      4219  TIP3      OH2            -7.9832844045       18.7994716383      -25.6090056195  TIP3      4073            0.0000000000
     25686      4219  TIP3      H1             -7.4118853162       19.4560697753      -25.1803411617  TIP3      4073            0.0000000000
     25687      4219  TIP3      H2             -8.7460469026       18.7715192681      -24.9883240142  TIP3      4073            0.0000000000
     25688      4220  TIP3      OH2            -2.3663985282       14.4601013190      -33.6222431256  TIP3      4074            0.0000000000
     25689      4220  TIP3      H1             -1.4447044239       14.1376942780      -33.6298810605  TIP3      4074            0.0000000000
     25690      4220  TIP3      H2             -2.6819045687       14.0607821639      -32.7986271011  TIP3      4074            0.0000000000
     25691      4221  TIP3      OH2            -7.3040681107       10.3145662167      -36.3695131285  TIP3      4075            0.0000000000
     25692      4221  TIP3      H1             -7.8448066509        9.6008505871      -35.9621158022  TIP3      4075            0.0000000000
     25693      4221  TIP3      H2             -6.8591358306        9.8320951501      -37.0844312181  TIP3      4075            0.0000000000
     25694      4222  TIP3      OH2            -3.0402546389       12.9704321524      -30.8596984729  TIP3      4076            0.0000000000
     25695      4222  TIP3      H1             -3.9331681650       13.3639058803      -30.7774547957  TIP3      4076            0.0000000000
     25696      4222  TIP3      H2             -2.6048099677       13.3234687955      -30.0674970986  TIP3      4076            0.0000000000
     25697      4223  TIP3      OH2            -2.5444709790       19.0435310826      -38.4928421718  TIP3      4077            0.0000000000
     25698      4223  TIP3      H1             -3.2673874950       18.5767616885      -38.9577697412  TIP3      4077            0.0000000000
     25699      4223  TIP3      H2             -3.0344842328       19.3442055635      -37.6872402844  TIP3      4077            0.0000000000
     25700      4224  TIP3      OH2             4.5584517871       18.6224907221      -30.2129677028  TIP3      4078            0.0000000000
     25701      4224  TIP3      H1              5.2138109436       19.0958782323      -30.7798711038  TIP3      4078            0.0000000000
     25702      4224  TIP3      H2              3.8752668578       18.4052917566      -30.8727908048  TIP3      4078            0.0000000000
     25703      4225  TIP3      OH2             1.2752538197       11.9516158980      -40.7931171193  TIP3      4079            0.0000000000
     25704      4225  TIP3      H1              0.4110512580       12.0352397164      -41.2438304329  TIP3      4079            0.0000000000
     25705      4225  TIP3      H2              1.3073541975       12.7915676691      -40.2978246085  TIP3      4079            0.0000000000
     25706      4226  TIP3      OH2            -1.7061102801       19.1941630080      -27.5936002873  TIP3      4080            0.0000000000
     25707      4226  TIP3      H1             -1.8811026964       18.9689957392      -26.6685806230  TIP3      4080            0.0000000000
     25708      4226  TIP3      H2             -1.8334743571       20.1670601883      -27.5715521571  TIP3      4080            0.0000000000
     25709      4227  TIP3      OH2             1.5765350844       14.0515682500      -38.8606916564  TIP3      4081            0.0000000000
     25710      4227  TIP3      H1              2.3476914264       13.8017151562      -38.3172480995  TIP3      4081            0.0000000000
     25711      4227  TIP3      H2              1.7899798217       14.9829472686      -39.0762183074  TIP3      4081            0.0000000000
     25712      4228  TIP3      OH2            -7.7902555506       18.4735697041      -33.3662725462  TIP3      4082            0.0000000000
     25713      4228  TIP3      H1             -7.4664528295       18.1792236311      -34.2431628753  TIP3      4082            0.0000000000
     25714      4228  TIP3      H2             -7.4334066302       17.8202007652      -32.7470930129  TIP3      4082            0.0000000000
     25715      4229  TIP3      OH2            -0.3793506043       20.2916725453      -39.6798619576  TIP3      4083            0.0000000000
     25716      4229  TIP3      H1             -0.6701138758       21.2223966479      -39.5962919169  TIP3      4083            0.0000000000
     25717      4229  TIP3      H2             -1.1737455376       19.8200232256      -39.3429180303  TIP3      4083            0.0000000000
     25718      4230  TIP3      OH2           -10.7329489986       16.6642213791      -27.5308649586  TIP3      4084            0.0000000000
     25719      4230  TIP3      H1            -10.9321847469       15.9331336538      -26.9102378477  TIP3      4084            0.0000000000
     25720      4230  TIP3      H2            -11.4960833989       16.6241294008      -28.1533231300  TIP3      4084            0.0000000000
     25721      4231  TIP3      OH2            -3.8755032169       16.2679795820      -25.9345212652  TIP3      4085            0.0000000000
     25722      4231  TIP3      H1             -4.1298301267       15.8495400138      -26.7748095103  TIP3      4085            0.0000000000
     25723      4231  TIP3      H2             -2.9944433288       15.8580346797      -25.8222793757  TIP3      4085            0.0000000000
     25724      4232  TIP3      OH2             1.3792196568       21.4045088243      -27.5933453314  TIP3      4086            0.0000000000
     25725      4232  TIP3      H1              0.5754539397       21.5532656351      -28.1063890637  TIP3      4086            0.0000000000
     25726      4232  TIP3      H2              1.1579510678       21.8898601740      -26.7797313370  TIP3      4086            0.0000000000
     25727      4233  TIP3      OH2             6.7858919761       13.9411313058      -39.3934785155  TIP3      4087            0.0000000000
     25728      4233  TIP3      H1              6.0024866141       13.8394931492      -39.9649106401  TIP3      4087            0.0000000000
     25729      4233  TIP3      H2              6.9077936545       14.9054275655      -39.4991600205  TIP3      4087            0.0000000000
     25730      4234  TIP3      OH2             7.0796392494       19.7738440364      -26.6498552895  TIP3      4088            0.0000000000
     25731      4234  TIP3      H1              6.1296499159       19.8526967945      -26.9298298975  TIP3      4088            0.0000000000
     25732      4234  TIP3      H2              7.5468690918       19.6964871857      -27.5158921778  TIP3      4088            0.0000000000
     25733      4235  TIP3      OH2             5.5853741470       22.3198297935      -38.9682325229  TIP3      4089            0.0000000000
     25734      4235  TIP3      H1              4.8360582143       21.7142407741      -38.9013951752  TIP3      4089            0.0000000000
     25735      4235  TIP3      H2              5.8426004174       22.2462315389      -39.9150475482  TIP3      4089            0.0000000000
     25736      4236  TIP3      OH2             2.3359420425       17.4551001881      -31.9626261118  TIP3      4090            0.0000000000
     25737      4236  TIP3      H1              1.4116356491       17.2292004426      -32.1474298261  TIP3      4090            0.0000000000
     25738      4236  TIP3      H2              2.7759342713       16.7481122221      -32.4897983280  TIP3      4090            0.0000000000
     25739      4237  TIP3      OH2            -5.3750696383       21.7686416178      -35.6257876731  TIP3      4091            0.0000000000
     25740      4237  TIP3      H1             -5.1024785599       22.7043370597      -35.6206163128  TIP3      4091            0.0000000000
     25741      4237  TIP3      H2             -6.1340077652       21.8095401085      -36.2185874641  TIP3      4091            0.0000000000
     25742      4238  TIP3      OH2            -9.3134949613       16.8153885902      -41.2279151901  TIP3      4092            0.0000000000
     25743      4238  TIP3      H1             -8.8164026813       17.2498969899      -40.5039605878  TIP3      4092            0.0000000000
     25744      4238  TIP3      H2            -10.2514750234       16.8599815625      -40.9426509529  TIP3      4092            0.0000000000
     25745      4239  TIP3      OH2            -3.9332035521       19.6205748102      -36.2516793664  TIP3      4093            0.0000000000
     25746      4239  TIP3      H1             -4.4657453159       20.4310411675      -36.0731830249  TIP3      4093            0.0000000000
     25747      4239  TIP3      H2             -4.2100149139       19.0399480490      -35.5341867719  TIP3      4093            0.0000000000
     25748      4240  TIP3      OH2            -3.2312745421       23.5893792678      -29.4458252010  TIP3      4094            0.0000000000
     25749      4240  TIP3      H1             -2.5790735261       24.2655731400      -29.7390208102  TIP3      4094            0.0000000000
     25750      4240  TIP3      H2             -2.7315412385       23.1291601557      -28.7405311619  TIP3      4094            0.0000000000
     25751      4241  TIP3      OH2            -5.0002838334       24.4645060822      -36.5715193827  TIP3      4095            0.0000000000
     25752      4241  TIP3      H1             -5.9523540245       24.4896221666      -36.3501584500  TIP3      4095            0.0000000000
     25753      4241  TIP3      H2             -4.6920326674       25.3251800662      -36.2187991191  TIP3      4095            0.0000000000
     25754      4242  TIP3      OH2            -0.1469397189       19.6168354321      -30.1136790647  TIP3      4096            0.0000000000
     25755      4242  TIP3      H1             -0.4578802460       19.3577863428      -29.2147782497  TIP3      4096            0.0000000000
     25756      4242  TIP3      H2              0.3737565081       18.8350028637      -30.3562461240  TIP3      4096            0.0000000000
     25757      4243  TIP3      OH2             2.5820443961       20.9457153394      -40.5727911577  TIP3      4097            0.0000000000
     25758      4243  TIP3      H1              2.8779047732       20.3379777272      -39.8631060380  TIP3      4097            0.0000000000
     25759      4243  TIP3      H2              1.6463549106       20.6849570460      -40.6361037347  TIP3      4097            0.0000000000
     25760      4244  TIP3      OH2             3.4050470568       24.3426049505      -27.9437448118  TIP3      4098            0.0000000000
     25761      4244  TIP3      H1              2.5532185960       23.8798243236      -27.9423174098  TIP3      4098            0.0000000000
     25762      4244  TIP3      H2              3.2818285494       24.9836480665      -28.6754215221  TIP3      4098            0.0000000000
     25763      4245  TIP3      OH2             7.1277327198       25.2803581300      -40.6763329428  TIP3      4099            0.0000000000
     25764      4245  TIP3      H1              7.2972541234       25.8760184310      -41.4371243050  TIP3      4099            0.0000000000
     25765      4245  TIP3      H2              6.5378006418       25.8406452528      -40.1337042432  TIP3      4099            0.0000000000
     25766      4246  TIP3      OH2            -8.5535585001       11.1879375173      -28.1725485185  TIP3      4100            0.0000000000
     25767      4246  TIP3      H1             -9.3043687905       11.5627858161      -27.6779541369  TIP3      4100            0.0000000000
     25768      4246  TIP3      H2             -8.4339347813       10.3260439292      -27.7327278333  TIP3      4100            0.0000000000
     25769      4247  TIP3      OH2             3.4491756810       19.3443795011      -38.5777736030  TIP3      4101            0.0000000000
     25770      4247  TIP3      H1              3.3381388750       18.4922460602      -38.0949814447  TIP3      4101            0.0000000000
     25771      4247  TIP3      H2              4.4192612120       19.4389330869      -38.5228388302  TIP3      4101            0.0000000000
     25772      4248  TIP3      OH2            -9.1963697708       23.2513725669      -29.7461813284  TIP3      4102            0.0000000000
     25773      4248  TIP3      H1             -8.6105898542       22.4805628302      -29.7399085083  TIP3      4102            0.0000000000
     25774      4248  TIP3      H2             -8.7693617228       23.8494941027      -29.1047653349  TIP3      4102            0.0000000000
     25775      4249  TIP3      OH2            -4.5533756589       21.4737860060      -40.0083545126  TIP3      4103            0.0000000000
     25776      4249  TIP3      H1             -4.0201836700       20.7801339863      -39.5888263939  TIP3      4103            0.0000000000
     25777      4249  TIP3      H2             -4.1417770595       22.3041225037      -39.6715483244  TIP3      4103            0.0000000000
     25778      4250  TIP3      OH2            -8.1273865675       18.5646999271      -39.4656571835  TIP3      4104            0.0000000000
     25779      4250  TIP3      H1             -8.8653683581       19.1002365565      -39.0884712921  TIP3      4104            0.0000000000
     25780      4250  TIP3      H2             -7.5100575190       19.2459514840      -39.7899262222  TIP3      4104            0.0000000000
     25781      4251  TIP3      OH2            -0.2594714048       11.4068539927      -29.1694490528  TIP3      4105            0.0000000000
     25782      4251  TIP3      H1              0.6454672052       11.6157902922      -28.8828752519  TIP3      4105            0.0000000000
     25783      4251  TIP3      H2             -0.4140693721       10.5143563206      -28.8105962081  TIP3      4105            0.0000000000
     25784      4252  TIP3      OH2             0.2745119467       11.1143009740      -37.8478771315  TIP3      4106            0.0000000000
     25785      4252  TIP3      H1              0.8076834748       11.4534814454      -38.5768775130  TIP3      4106            0.0000000000
     25786      4252  TIP3      H2              0.7982589583       11.4408437872      -37.0728861147  TIP3      4106            0.0000000000
     25787      4253  TIP3      OH2            -1.3593078879       22.8713839200      -38.9109903429  TIP3      4107            0.0000000000
     25788      4253  TIP3      H1             -1.9134295615       23.6234447294      -38.6462838800  TIP3      4107            0.0000000000
     25789      4253  TIP3      H2             -0.8987573860       23.2245783217      -39.6980821294  TIP3      4107            0.0000000000
     25790      4254  TIP3      OH2            -2.3202372124       12.8144097640      -37.0277511793  TIP3      4108            0.0000000000
     25791      4254  TIP3      H1             -1.6084337989       13.4807273063      -36.9772923304  TIP3      4108            0.0000000000
     25792      4254  TIP3      H2             -2.3088247465       12.3989456244      -36.1351469601  TIP3      4108            0.0000000000
     25793      4255  TIP3      OH2            -1.2686937944       13.9964962127      -28.3363926026  TIP3      4109            0.0000000000
     25794      4255  TIP3      H1             -1.1217063712       14.2128000045      -27.3978479783  TIP3      4109            0.0000000000
     25795      4255  TIP3      H2             -0.9509646886       13.0743751109      -28.4487151525  TIP3      4109            0.0000000000
     25796      4256  TIP3      OH2            -1.5235636277        9.4629987825      -36.7181544953  TIP3      4110            0.0000000000
     25797      4256  TIP3      H1             -1.8930611552       10.1097526569      -36.0756282269  TIP3      4110            0.0000000000
     25798      4256  TIP3      H2             -0.7716774737       10.0092627803      -37.0713817828  TIP3      4110            0.0000000000
     25799      4257  TIP3      OH2            -4.1930067414       24.0413482985      -39.0328425315  TIP3      4111            0.0000000000
     25800      4257  TIP3      H1             -4.2324895464       24.8197345507      -39.6186833958  TIP3      4111            0.0000000000
     25801      4257  TIP3      H2             -4.6578604635       24.3498761024      -38.2206122662  TIP3      4111            0.0000000000
     25802      4258  TIP3      OH2            -5.7911207000       10.6965838656      -39.2880979142  TIP3      4112            0.0000000000
     25803      4258  TIP3      H1             -5.8143924074       11.5735807377      -38.8626747864  TIP3      4112            0.0000000000
     25804      4258  TIP3      H2             -4.9118377931       10.3797908100      -39.0064074205  TIP3      4112            0.0000000000
     25805      4259  TIP3      OH2             4.1046154863       11.1575134001      -27.4047783264  TIP3      4113            0.0000000000
     25806      4259  TIP3      H1              3.2955350189       11.6738403518      -27.6374617544  TIP3      4113            0.0000000000
     25807      4259  TIP3      H2              4.6853397403       11.3661728942      -28.1593128801  TIP3      4113            0.0000000000
     25808      4260  TIP3      OH2             3.2679717284       15.2781100203      -33.2693219406  TIP3      4114            0.0000000000
     25809      4260  TIP3      H1              2.5145009454       14.6723071031      -33.1523884986  TIP3      4114            0.0000000000
     25810      4260  TIP3      H2              3.9732299673       14.7807969324      -32.7928579455  TIP3      4114            0.0000000000
     25811      4261  TIP3      OH2            -7.3857497888       21.2404255821      -40.8866070189  TIP3      4115            0.0000000000
     25812      4261  TIP3      H1             -6.6087243911       21.5950018062      -40.4139100329  TIP3      4115            0.0000000000
     25813      4261  TIP3      H2             -6.9119854907       20.6878603920      -41.5412032925  TIP3      4115            0.0000000000
     25814      4262  TIP3      OH2            -9.1366522116       14.1662763042      -41.6354242749  TIP3      4116            0.0000000000
     25815      4262  TIP3      H1             -9.1120610618       15.1103334739      -41.3823734365  TIP3      4116            0.0000000000
     25816      4262  TIP3      H2             -9.9491770365       14.1186219932      -42.1668203113  TIP3      4116            0.0000000000
     25817      4263  TIP3      OH2             4.1626109966       24.4204908352      -31.7064928555  TIP3      4117            0.0000000000
     25818      4263  TIP3      H1              4.4521582102       25.0636082709      -32.3985803272  TIP3      4117            0.0000000000
     25819      4263  TIP3      H2              5.0008936267       24.0166024359      -31.4266649619  TIP3      4117            0.0000000000
     25820      4264  TIP3      OH2            -8.4726014956        8.5281794074      -32.5914099344  TIP3      4118            0.0000000000
     25821      4264  TIP3      H1             -8.5932600911        8.4103223618      -33.5610803920  TIP3      4118            0.0000000000
     25822      4264  TIP3      H2             -8.8175339023        7.6594714987      -32.2798269488  TIP3      4118            0.0000000000
     25823      4265  TIP3      OH2            -9.9320490327       22.1646992309      -37.1185228931  TIP3      4119            0.0000000000
     25824      4265  TIP3      H1            -10.5378190773       22.7501783920      -36.6520337791  TIP3      4119            0.0000000000
     25825      4265  TIP3      H2             -9.6991047654       22.7534064883      -37.8698308721  TIP3      4119            0.0000000000
     25826      4266  TIP3      OH2           -10.3045283333       25.3620613152      -25.5562682628  TIP3      4120            0.0000000000
     25827      4266  TIP3      H1             -9.6640311321       25.1326542338      -24.8478725494  TIP3      4120            0.0000000000
     25828      4266  TIP3      H2            -10.7975194300       24.5298221019      -25.6159385193  TIP3      4120            0.0000000000
     25829      4267  TIP3      OH2            -6.0183445083       24.2891515259      -24.1965582583  TIP3      4121            0.0000000000
     25830      4267  TIP3      H1             -5.1204005874       24.3697864143      -23.8352380657  TIP3      4121            0.0000000000
     25831      4267  TIP3      H2             -5.9050394393       23.7421632709      -25.0034352884  TIP3      4121            0.0000000000
     25832      4268  TIP3      OH2            -0.3856170282       23.7424834343      -41.5371249107  TIP3      4122            0.0000000000
     25833      4268  TIP3      H1             -1.1109903190       23.3487773909      -42.0570208465  TIP3      4122            0.0000000000
     25834      4268  TIP3      H2              0.2571397830       23.9057320609      -42.2493259004  TIP3      4122            0.0000000000
     25835      4269  TIP3      OH2             0.9830679533       22.8368312418      -25.2421317996  TIP3      4123            0.0000000000
     25836      4269  TIP3      H1              0.4911152337       22.0471270916      -24.9157623429  TIP3      4123            0.0000000000
     25837      4269  TIP3      H2              1.7889404268       22.7991599582      -24.6861299940  TIP3      4123            0.0000000000
     25838      4270  TIP3      OH2             3.6513989177       23.6405972210      -42.2756427716  TIP3      4124            0.0000000000
     25839      4270  TIP3      H1              3.8593572623       22.7958828551      -41.8346934736  TIP3      4124            0.0000000000
     25840      4270  TIP3      H2              4.5303899257       24.0209301546      -42.4569526746  TIP3      4124            0.0000000000
     25841      4271  TIP3      OH2           -10.5499424532       18.8101678204      -24.2908885983  TIP3      4125            0.0000000000
     25842      4271  TIP3      H1            -10.8403615302       17.9264942086      -24.5484976103  TIP3      4125            0.0000000000
     25843      4271  TIP3      H2            -10.9438686333       19.3547603030      -24.9898805033  TIP3      4125            0.0000000000
     25844      4272  TIP3      OH2            -5.8237387694       19.1536709019      -41.9369452897  TIP3      4126            0.0000000000
     25845      4272  TIP3      H1             -5.1453484843       18.9988366895      -41.2494179562  TIP3      4126            0.0000000000
     25846      4272  TIP3      H2             -5.2789418290       19.1258933471      -42.7531585486  TIP3      4126            0.0000000000
     25847      4273  TIP3      OH2            -3.5615817480       18.9239296758      -25.2334819179  TIP3      4127            0.0000000000
     25848      4273  TIP3      H1             -3.9394251641       19.5071560045      -25.9357107099  TIP3      4127            0.0000000000
     25849      4273  TIP3      H2             -3.8729761482       18.0164008970      -25.4692686999  TIP3      4127            0.0000000000
     25850      4274  TIP3      OH2             2.1024851344       18.7934719652      -27.6547990357  TIP3      4128            0.0000000000
     25851      4274  TIP3      H1              2.9710285441       19.2424819129      -27.6049039779  TIP3      4128            0.0000000000
     25852      4274  TIP3      H2              1.5494608159       19.5841243797      -27.4906132407  TIP3      4128            0.0000000000
     25853      4275  TIP3      OH2            -9.1503181248       15.7867798403      -24.6386790218  TIP3      4129            0.0000000000
     25854      4275  TIP3      H1             -8.3902615399       15.1960731589      -24.4840249702  TIP3      4129            0.0000000000
     25855      4275  TIP3      H2             -8.9070163157       16.5540245293      -24.0895514433  TIP3      4129            0.0000000000
     25856      4276  TIP3      OH2            -4.5200115257       17.6138982317      -39.9028718983  TIP3      4130            0.0000000000
     25857      4276  TIP3      H1             -5.2955457845       17.1372103701      -39.5453352975  TIP3      4130            0.0000000000
     25858      4276  TIP3      H2             -4.1116314624       16.9280465059      -40.4646395170  TIP3      4130            0.0000000000
     25859      4277  TIP3      OH2            -5.6353757984       15.0254218599      -27.9381186669  TIP3      4131            0.0000000000
     25860      4277  TIP3      H1             -6.3206842298       15.7057157810      -27.7935744010  TIP3      4131            0.0000000000
     25861      4277  TIP3      H2             -5.0593425820       15.5068567971      -28.5647419821  TIP3      4131            0.0000000000
     25862      4278  TIP3      OH2            -3.4643803726       15.6103566413      -41.8205378180  TIP3      4132            0.0000000000
     25863      4278  TIP3      H1             -3.2856493892       15.7282014254      -42.7703855008  TIP3      4132            0.0000000000
     25864      4278  TIP3      H2             -2.5564007182       15.7176961324      -41.4296048944  TIP3      4132            0.0000000000
     25865      4279  TIP3      OH2             0.1396159450       17.9822782858      -24.3473972629  TIP3      4133            0.0000000000
     25866      4279  TIP3      H1              0.8346784920       17.5006364271      -24.8144724217  TIP3      4133            0.0000000000
     25867      4279  TIP3      H2             -0.2876435956       17.2854295503      -23.8258213958  TIP3      4133            0.0000000000
     25868      4280  TIP3      OH2             5.7533568407       18.5641080049       42.3384920145  TIP3      4134            0.0000000000
     25869      4280  TIP3      H1              5.4803709001       18.6351810223       41.4135684599  TIP3      4134            0.0000000000
     25870      4280  TIP3      H2              6.0234344286       19.4773894271       42.5308133175  TIP3      4134            0.0000000000
     25871      4281  TIP3      OH2            -4.3456839478       12.9518968063      -26.9016233761  TIP3      4135            0.0000000000
     25872      4281  TIP3      H1             -4.5132035229       12.3026945003      -27.6226059290  TIP3      4135            0.0000000000
     25873      4281  TIP3      H2             -4.6935098594       13.7635050589      -27.3358740663  TIP3      4135            0.0000000000
     25874      4282  TIP3      OH2            -4.3728373532       11.1963660017      -29.0971963803  TIP3      4136            0.0000000000
     25875      4282  TIP3      H1             -3.6907047381       11.3827867473      -29.7677237357  TIP3      4136            0.0000000000
     25876      4282  TIP3      H2             -5.1856476530       11.3207425728      -29.6298559882  TIP3      4136            0.0000000000
     25877      4283  TIP3      OH2            -3.6108483019       16.5324429537      -29.0509048128  TIP3      4137            0.0000000000
     25878      4283  TIP3      H1             -2.6831627654       16.7593208742      -29.2361402003  TIP3      4137            0.0000000000
     25879      4283  TIP3      H2             -4.0688791982       17.3175794179      -29.4088825317  TIP3      4137            0.0000000000
     25880      4284  TIP3      OH2             1.5926477757       13.9571199644      -24.1368307272  TIP3      4138            0.0000000000
     25881      4284  TIP3      H1              1.6845942025       13.0297523732      -23.8633616969  TIP3      4138            0.0000000000
     25882      4284  TIP3      H2              2.5208261878       14.2216216079      -24.2573850492  TIP3      4138            0.0000000000
     25883      4285  TIP3      OH2             3.1043845894       17.1603614033      -25.7092035109  TIP3      4139            0.0000000000
     25884      4285  TIP3      H1              2.6785195759       17.7725180628      -26.3503966227  TIP3      4139            0.0000000000
     25885      4285  TIP3      H2              4.0670386746       17.2914964259      -25.8519612464  TIP3      4139            0.0000000000
     25886      4286  TIP3      OH2            -6.9408626717       14.0320052685      -24.6889657407  TIP3      4140            0.0000000000
     25887      4286  TIP3      H1             -7.4927555480       13.2590997635      -24.9540715756  TIP3      4140            0.0000000000
     25888      4286  TIP3      H2             -6.3483345928       14.1474159420      -25.4447051579  TIP3      4140            0.0000000000
     25889      4287  TIP3      OH2            -3.8198648390        8.6875996554      -28.1391866852  TIP3      4141            0.0000000000
     25890      4287  TIP3      H1             -4.0574741713        9.5606105697      -28.5233148086  TIP3      4141            0.0000000000
     25891      4287  TIP3      H2             -4.0242469230        8.0439602316      -28.8349096232  TIP3      4141            0.0000000000
     25892      4288  TIP3      OH2            -2.5274457190       12.5796952248      -24.8221148828  TIP3      4142            0.0000000000
     25893      4288  TIP3      H1             -3.1230648037       12.0861606629      -24.2310860628  TIP3      4142            0.0000000000
     25894      4288  TIP3      H2             -3.1273083332       12.6641727129      -25.5992983316  TIP3      4142            0.0000000000
     25895      4289  TIP3      OH2             0.2724720839       11.9468371766      -26.0398277065  TIP3      4143            0.0000000000
     25896      4289  TIP3      H1             -0.6429272152       11.7792948849      -25.7734797149  TIP3      4143            0.0000000000
     25897      4289  TIP3      H2              0.6979190512       11.2139417454      -25.5322670467  TIP3      4143            0.0000000000
     25898      4290  TIP3      OH2             1.0127339577        9.9613593690      -24.3851768675  TIP3      4144            0.0000000000
     25899      4290  TIP3      H1              1.1927647363        9.0345265187      -24.1756963234  TIP3      4144            0.0000000000
     25900      4290  TIP3      H2              1.3173921856       10.4173687086      -23.5740066252  TIP3      4144            0.0000000000
     25901      4291  TIP3      OH2            -8.3837302496       11.6549718297      -24.8333777570  TIP3      4145            0.0000000000
     25902      4291  TIP3      H1             -8.3865189197       10.7542574843      -25.2220162602  TIP3      4145            0.0000000000
     25903      4291  TIP3      H2             -8.2303147639       11.4433899596      -23.8804632744  TIP3      4145            0.0000000000
     25904      4292  TIP3      OH2            -3.5424974516        7.8146842137      -25.6090940747  TIP3      4146            0.0000000000
     25905      4292  TIP3      H1             -2.5994717881        7.6304556217      -25.7138267857  TIP3      4146            0.0000000000
     25906      4292  TIP3      H2             -3.7242192187        8.0006940300      -26.5585715618  TIP3      4146            0.0000000000
     25907      4293  TIP3      OH2            -3.6154935495       26.1510886320      -40.8740945814  TIP3      4147            0.0000000000
     25908      4293  TIP3      H1             -2.6806539797       26.4043466110      -40.7319171159  TIP3      4147            0.0000000000
     25909      4293  TIP3      H2             -3.9858747650       26.9500963052      -41.2676688662  TIP3      4147            0.0000000000
     25910      4294  TIP3      OH2           -10.2401852548       20.6783561179      -41.3241630759  TIP3      4148            0.0000000000
     25911      4294  TIP3      H1             -9.2703245655       20.6660085240      -41.1888649315  TIP3      4148            0.0000000000
     25912      4294  TIP3      H2            -10.2778420470       20.6363775796      -42.2990021663  TIP3      4148            0.0000000000
     25913      4295  TIP3      OH2           -11.3721005249       25.7581991532      -36.3160105640  TIP3      4149            0.0000000000
     25914      4295  TIP3      H1            -12.0966324762       25.1762727261      -36.6297769862  TIP3      4149            0.0000000000
     25915      4295  TIP3      H2            -11.0333578174       25.2216472466      -35.5616994113  TIP3      4149            0.0000000000
     25916      4296  TIP3      OH2           -10.7096015602       24.1374198985      -34.2953452244  TIP3      4150            0.0000000000
     25917      4296  TIP3      H1            -11.2839500875       23.3607099246      -34.1737283970  TIP3      4150            0.0000000000
     25918      4296  TIP3      H2            -10.4677383124       24.3185599174      -33.3692490658  TIP3      4150            0.0000000000
     25919      4297  TIP3      OH2             7.0012141835       24.1027261102      -31.2436244313  TIP3      4151            0.0000000000
     25920      4297  TIP3      H1              7.4677984793       23.9305295422      -30.4063057100  TIP3      4151            0.0000000000
     25921      4297  TIP3      H2              6.9586788401       25.0723467079      -31.2330941715  TIP3      4151            0.0000000000
     25922      4298  TIP3      OH2             6.5435591284       24.5959055002      -28.3722306968  TIP3      4152            0.0000000000
     25923      4298  TIP3      H1              6.0825631296       24.0062944696      -29.0041801400  TIP3      4152            0.0000000000
     25924      4298  TIP3      H2              6.7383865335       23.9336179440      -27.6762777247  TIP3      4152            0.0000000000
     25925      4299  TIP3      OH2             5.0867894440       20.3794960303      -23.9328698388  TIP3      4153            0.0000000000
     25926      4299  TIP3      H1              4.2998306168       20.4046775927      -23.3409274096  TIP3      4153            0.0000000000
     25927      4299  TIP3      H2              5.4864108841       21.2507233520      -23.7212021411  TIP3      4153            0.0000000000
     25928      4300  TIP3      OH2             6.1884915548       18.8217065901      -38.6434987807  TIP3      4154            0.0000000000
     25929      4300  TIP3      H1              7.0282607490       19.3222975928      -38.4762974582  TIP3      4154            0.0000000000
     25930      4300  TIP3      H2              6.1616419302       18.2224254216      -37.8651532793  TIP3      4154            0.0000000000
     25931      4301  TIP3      OH2             6.6059568849       16.8325117273      -36.7678926317  TIP3      4155            0.0000000000
     25932      4301  TIP3      H1              5.8720426083       16.4369094109      -36.2321890040  TIP3      4155            0.0000000000
     25933      4301  TIP3      H2              7.2303062638       17.0426313611      -36.0547941048  TIP3      4155            0.0000000000
     25934      4302  TIP3      OH2             6.6218080676       19.6906923898      -31.4970108813  TIP3      4156            0.0000000000
     25935      4302  TIP3      H1              7.1397486954       19.0044474347      -31.9661054454  TIP3      4156            0.0000000000
     25936      4302  TIP3      H2              7.0605428162       20.5119863733      -31.7983189592  TIP3      4156            0.0000000000
     25937      4303  TIP3      OH2             5.1947252471       22.3463352343      -29.4243944927  TIP3      4157            0.0000000000
     25938      4303  TIP3      H1              4.4002345001       22.8055348914      -29.1210522070  TIP3      4157            0.0000000000
     25939      4303  TIP3      H2              4.8664961616       21.9133918068      -30.2465187405  TIP3      4157            0.0000000000
     25940      4304  TIP3      OH2             6.6948834623       16.6040172567      -40.3410663480  TIP3      4158            0.0000000000
     25941      4304  TIP3      H1              6.1212449776       16.9987257275      -41.0144312802  TIP3      4158            0.0000000000
     25942      4304  TIP3      H2              6.5411603263       17.2461177437      -39.6150273016  TIP3      4158            0.0000000000
     25943      4305  TIP3      OH2             4.4775080927       13.7255080902      -41.2331836662  TIP3      4159            0.0000000000
     25944      4305  TIP3      H1              5.1767982071       14.2253444805      -41.6760882067  TIP3      4159            0.0000000000
     25945      4305  TIP3      H2              4.5580958655       12.8648729061      -41.7004438435  TIP3      4159            0.0000000000
     25946      4306  TIP3      OH2             4.5949649303       15.7649179639      -35.4748062467  TIP3      4160            0.0000000000
     25947      4306  TIP3      H1              4.0730722034       15.0124821454      -35.7982190508  TIP3      4160            0.0000000000
     25948      4306  TIP3      H2              4.3176172131       15.7371034780      -34.5287061351  TIP3      4160            0.0000000000
     25949      4307  TIP3      OH2           -10.6541848644       17.7094073849      -31.6974513878  TIP3      4161            0.0000000000
     25950      4307  TIP3      H1            -10.6218438465       17.3316334420      -32.5966978679  TIP3      4161            0.0000000000
     25951      4307  TIP3      H2             -9.7403364435       17.4365674995      -31.4213705793  TIP3      4161            0.0000000000
     25952      4308  TIP3      OH2             5.8637410596       17.3279127748      -26.0359698107  TIP3      4162            0.0000000000
     25953      4308  TIP3      H1              6.2341838719       16.4350554439      -26.2419731949  TIP3      4162            0.0000000000
     25954      4308  TIP3      H2              6.5094134386       17.9668677984      -26.3943343567  TIP3      4162            0.0000000000
     25955      4309  TIP3      OH2             6.8636498444       14.8643532705      -26.6207736853  TIP3      4163            0.0000000000
     25956      4309  TIP3      H1              5.9093280051       14.6015831664      -26.5945429707  TIP3      4163            0.0000000000
     25957      4309  TIP3      H2              7.1903464059       14.3310122091      -25.8540928823  TIP3      4163            0.0000000000
     25958      4310  TIP3      OH2             4.4212877071       11.3683095804      -42.5455810186  TIP3      4164            0.0000000000
     25959      4310  TIP3      H1              5.0120673980       10.9407351783      -41.8876497687  TIP3      4164            0.0000000000
     25960      4310  TIP3      H2              3.5168325471       11.2552669666      -42.1930960052  TIP3      4164            0.0000000000
     25961      4311  TIP3      OH2             3.7257446941       13.5308323345      -37.1744601155  TIP3      4165            0.0000000000
     25962      4311  TIP3      H1              3.9920247972       12.5909265749      -37.0893625101  TIP3      4165            0.0000000000
     25963      4311  TIP3      H2              4.4552923979       13.8366982102      -37.7301423098  TIP3      4165            0.0000000000
     25964      4312  TIP3      OH2             5.1623562583       13.7893910463      -32.1203781574  TIP3      4166            0.0000000000
     25965      4312  TIP3      H1              6.1125038217       13.9188046450      -31.9135527230  TIP3      4166            0.0000000000
     25966      4312  TIP3      H2              4.8377509840       13.7055913334      -31.2021699928  TIP3      4166            0.0000000000
     25967      4313  TIP3      OH2             5.0038944904       14.3000347562      -29.4315389021  TIP3      4167            0.0000000000
     25968      4313  TIP3      H1              4.2684131097       14.5760961471      -28.8480753780  TIP3      4167            0.0000000000
     25969      4313  TIP3      H2              5.5628839022       15.1124762272      -29.4569891689  TIP3      4167            0.0000000000
     25970      4314  TIP3      OH2           -10.8061153122       12.8133101264      -25.3952467631  TIP3      4168            0.0000000000
     25971      4314  TIP3      H1             -9.9230572619       12.4850146172      -25.1113066530  TIP3      4168            0.0000000000
     25972      4314  TIP3      H2            -11.3558219710       12.0023084084      -25.2871656464  TIP3      4168            0.0000000000
     25973      4315  TIP3      OH2             6.3972510878        8.5596071775      -24.1075154551  TIP3      4169            0.0000000000
     25974      4315  TIP3      H1              7.1124625254        8.1752546413      -24.6444503720  TIP3      4169            0.0000000000
     25975      4315  TIP3      H2              6.5900611178        9.5264563281      -24.1396915983  TIP3      4169            0.0000000000
     25976      4316  TIP3      OH2             4.3582080670       10.5678840017      -37.1589102415  TIP3      4170            0.0000000000
     25977      4316  TIP3      H1              4.8912416755       10.1378884954      -36.4691643953  TIP3      4170            0.0000000000
     25978      4316  TIP3      H2              4.1426101165        9.8351223146      -37.7632787270  TIP3      4170            0.0000000000
     25979      4317  TIP3      OH2            -9.6110236492       10.9338762834      -32.2087255454  TIP3      4171            0.0000000000
     25980      4317  TIP3      H1             -9.1449902693       10.0633318217      -32.2544933536  TIP3      4171            0.0000000000
     25981      4317  TIP3      H2             -8.9194316136       11.5798955804      -32.4401245666  TIP3      4171            0.0000000000
     25982      4318  TIP3      OH2           -11.3620764824       13.9419930000      -31.5812697909  TIP3      4172            0.0000000000
     25983      4318  TIP3      H1            -10.9417180151       13.3314428681      -32.2114684549  TIP3      4172            0.0000000000
     25984      4318  TIP3      H2            -10.7053727748       14.6478618872      -31.5553877495  TIP3      4172            0.0000000000
     25985      4319  TIP3      OH2             6.2588230851       10.7583127770      -25.9524562514  TIP3      4173            0.0000000000
     25986      4319  TIP3      H1              5.3419814968       10.9099157030      -26.2907133006  TIP3      4173            0.0000000000
     25987      4319  TIP3      H2              6.4135585332        9.9005903633      -26.3941240090  TIP3      4173            0.0000000000
     25988      4320  TIP3      OH2             6.5053151890       10.5694850615      -40.8789880239  TIP3      4174            0.0000000000
     25989      4320  TIP3      H1              6.9671484782       10.2555474786      -41.6721027185  TIP3      4174            0.0000000000
     25990      4320  TIP3      H2              7.2448272018       11.0288114679      -40.4163736588  TIP3      4174            0.0000000000
     25991      4321  TIP3      OH2           -10.9630345416       10.1485673899      -37.8639933398  TIP3      4175            0.0000000000
     25992      4321  TIP3      H1            -11.8218639284       10.4754728925      -37.5726387977  TIP3      4175            0.0000000000
     25993      4321  TIP3      H2            -10.8916668619       10.5302014880      -38.7625512680  TIP3      4175            0.0000000000
     25994      4322  TIP3      OH2             3.6317038216       25.2869066212      -35.7829409998  TIP3      4176            0.0000000000
     25995      4322  TIP3      H1              4.4180931647       25.0867946669      -36.3332219772  TIP3      4176            0.0000000000
     25996      4322  TIP3      H2              4.0287623102       25.6248258920      -34.9531797122  TIP3      4176            0.0000000000
     25997      4323  TIP3      OH2           -11.5636219722        8.8383480886      -29.8145229444  TIP3      4177            0.0000000000
     25998      4323  TIP3      H1            -11.6547733737        8.2976996312      -29.0036650448  TIP3      4177            0.0000000000
     25999      4323  TIP3      H2            -12.2837298482        9.4874413618      -29.7782172071  TIP3      4177            0.0000000000
     26000      4324  TIP3      OH2            -9.0619091793       21.8881898932      -25.3665694674  TIP3      4178            0.0000000000
     26001      4324  TIP3      H1             -9.9181713335       21.7842562123      -25.8150520026  TIP3      4178            0.0000000000
     26002      4324  TIP3      H2             -9.1318535323       22.7875245993      -25.0161009269  TIP3      4178            0.0000000000
     26003      4325  TIP3      OH2            -6.0247518072       23.4310443063      -28.8799156962  TIP3      4179            0.0000000000
     26004      4325  TIP3      H1             -6.0173891819       24.3730430356      -29.1815536611  TIP3      4179            0.0000000000
     26005      4325  TIP3      H2             -5.0947261973       23.1956178700      -29.0900174651  TIP3      4179            0.0000000000
     26006      4326  TIP3      OH2            -1.6533838773       24.4868780640      -26.3955062804  TIP3      4180            0.0000000000
     26007      4326  TIP3      H1             -1.4851352081       24.3739602165      -25.4312167294  TIP3      4180            0.0000000000
     26008      4326  TIP3      H2             -0.8232007200       24.9173768510      -26.6782919061  TIP3      4180            0.0000000000
     26009      4327  TIP3      OH2             0.3140856440       26.1285311661      -27.1842607059  TIP3      4181            0.0000000000
     26010      4327  TIP3      H1              0.9772960679       25.4760138285      -27.4389073589  TIP3      4181            0.0000000000
     26011      4327  TIP3      H2              0.5880809791       26.3746428488      -26.2639300552  TIP3      4181            0.0000000000
     26012      4328  TIP3      OH2             5.9124049409        8.2473583949      -27.4026742749  TIP3      4182            0.0000000000
     26013      4328  TIP3      H1              5.2288439476        8.6568775816      -27.9571766521  TIP3      4182            0.0000000000
     26014      4328  TIP3      H2              5.8721285980        7.2946690256      -27.6614217525  TIP3      4182            0.0000000000
     26015      4329  TIP3      OH2            -8.6109282362       26.2311392155      -29.2213420508  TIP3      4183            0.0000000000
     26016      4329  TIP3      H1             -9.2888913266       26.7723262613      -29.6650461836  TIP3      4183            0.0000000000
     26017      4329  TIP3      H2             -8.6513037363       26.6183207223      -28.3349391919  TIP3      4183            0.0000000000
     26018      4330  TIP3      OH2            -6.1655823728       25.8714678650      -30.0870534161  TIP3      4184            0.0000000000
     26019      4330  TIP3      H1             -7.1146426939       26.0511896057      -29.8745704998  TIP3      4184            0.0000000000
     26020      4330  TIP3      H2             -6.0083627144       26.5462483574      -30.7817287230  TIP3      4184            0.0000000000
     26021      4331  TIP3      OH2            -1.6141389593       25.6332747504      -30.6174179501  TIP3      4185            0.0000000000
     26022      4331  TIP3      H1             -2.1215926095       25.8255011655      -31.4285305662  TIP3      4185            0.0000000000
     26023      4331  TIP3      H2             -1.4678484208       26.5353879342      -30.2813707499  TIP3      4185            0.0000000000
     26024      4332  TIP3      OH2             0.6803536114       24.3476535588      -29.4915176294  TIP3      4186            0.0000000000
     26025      4332  TIP3      H1             -0.0626342300       24.8034301589      -29.9389859524  TIP3      4186            0.0000000000
     26026      4332  TIP3      H2              1.3561640357       25.0423531871      -29.6546793751  TIP3      4186            0.0000000000
     26027      4333  TIP3      OH2             2.7660711281       26.1121346312      -29.9421054942  TIP3      4187            0.0000000000
     26028      4333  TIP3      H1              2.9454555077       27.0749358831      -29.9790785917  TIP3      4187            0.0000000000
     26029      4333  TIP3      H2              3.1524331867       25.8136958777      -30.7883495159  TIP3      4187            0.0000000000
     26030      4334  TIP3      OH2            -8.8051033505       24.7931671059      -32.0115898482  TIP3      4188            0.0000000000
     26031      4334  TIP3      H1             -8.9752903060       24.2333346319      -31.2207821358  TIP3      4188            0.0000000000
     26032      4334  TIP3      H2             -7.9708816513       24.4112079470      -32.3569363582  TIP3      4188            0.0000000000
     26033      4335  TIP3      OH2            -6.7172402586       23.3491881068      -33.4057570096  TIP3      4189            0.0000000000
     26034      4335  TIP3      H1             -6.8723466509       22.4458134384      -33.0572093301  TIP3      4189            0.0000000000
     26035      4335  TIP3      H2             -5.8133472019       23.4859395124      -33.0537002308  TIP3      4189            0.0000000000
     26036      4336  TIP3      OH2            -4.2709089889       23.7018589153      -32.3594201742  TIP3      4190            0.0000000000
     26037      4336  TIP3      H1             -4.0423364548       22.7564023358      -32.3026735014  TIP3      4190            0.0000000000
     26038      4336  TIP3      H2             -4.2440004903       23.9702406875      -31.4276177838  TIP3      4190            0.0000000000
     26039      4337  TIP3      OH2            -1.3664502938        8.8779748028      -33.2407091239  TIP3      4191            0.0000000000
     26040      4337  TIP3      H1             -2.2697689992        8.5298699415      -33.0329519201  TIP3      4191            0.0000000000
     26041      4337  TIP3      H2             -1.1029121114        8.3262042340      -33.9944922399  TIP3      4191            0.0000000000
     26042      4338  TIP3      OH2             4.5857307367        7.8854837656      -33.1378005809  TIP3      4192            0.0000000000
     26043      4338  TIP3      H1              5.1572083715        8.4258561051      -33.7283188383  TIP3      4192            0.0000000000
     26044      4338  TIP3      H2              3.6918051052        8.2247256826      -33.3707315189  TIP3      4192            0.0000000000
     26045      4339  TIP3      OH2             6.1026411416        8.9294538633      -35.2099943296  TIP3      4193            0.0000000000
     26046      4339  TIP3      H1              6.7729678141        8.4726731433      -35.7755310123  TIP3      4193            0.0000000000
     26047      4339  TIP3      H2              6.6526633883        9.6620082360      -34.8450847161  TIP3      4193            0.0000000000
     26048      4340  TIP3      OH2            -8.7446952368        8.2017632849      -35.3830156895  TIP3      4194            0.0000000000
     26049      4340  TIP3      H1             -9.5338475250        7.9991248328      -35.9423098630  TIP3      4194            0.0000000000
     26050      4340  TIP3      H2             -8.1947262310        7.4096462443      -35.5299464849  TIP3      4194            0.0000000000
     26051      4341  TIP3      OH2            -9.8335378738        8.2538193059      -39.7282160990  TIP3      4195            0.0000000000
     26052      4341  TIP3      H1             -9.2647134116        8.9536623351      -40.1201546973  TIP3      4195            0.0000000000
     26053      4341  TIP3      H2            -10.3143579746        8.7215244886      -39.0205886729  TIP3      4195            0.0000000000
     26054      4342  TIP3      OH2            -4.6292597883        8.1228464240      -35.8490659751  TIP3      4196            0.0000000000
     26055      4342  TIP3      H1             -3.8089275313        8.3615059469      -36.2981358204  TIP3      4196            0.0000000000
     26056      4342  TIP3      H2             -4.3768025566        8.1918531014      -34.9055793976  TIP3      4196            0.0000000000
     26057      4343  TIP3      OH2             2.2043842673        8.6469192320      -34.0186737248  TIP3      4197            0.0000000000
     26058      4343  TIP3      H1              2.1345829408        8.9528737483      -34.9243526404  TIP3      4197            0.0000000000
     26059      4343  TIP3      H2              1.5171201779        7.9365413477      -33.9614354834  TIP3      4197            0.0000000000
     26060      4344  TIP3      OH2             2.8814120475        8.5937452758      -38.8333808233  TIP3      4198            0.0000000000
     26061      4344  TIP3      H1              2.1383651987        8.8012358733      -39.4161094718  TIP3      4198            0.0000000000
     26062      4344  TIP3      H2              2.5462716794        7.7940942710      -38.3776553327  TIP3      4198            0.0000000000
     26063      4345  TIP3      OH2           -10.1839954438       24.1731771467      -38.9188542047  TIP3      4199            0.0000000000
     26064      4345  TIP3      H1            -10.9875024514       24.1122543863      -39.4632530096  TIP3      4199            0.0000000000
     26065      4345  TIP3      H2             -9.9659805072       25.1030938848      -39.0915718375  TIP3      4199            0.0000000000
     26066      4346  TIP3      OH2            -8.1558970216        9.6153888042      -41.2552316493  TIP3      4200            0.0000000000
     26067      4346  TIP3      H1             -7.3031207603        9.1592092368      -41.3417266745  TIP3      4200            0.0000000000
     26068      4346  TIP3      H2             -7.8934791495       10.5347565859      -41.1377559399  TIP3      4200            0.0000000000
     26069      4347  TIP3      OH2            -2.8922563490       10.7148657869      -38.7707294095  TIP3      4201            0.0000000000
     26070      4347  TIP3      H1             -2.4063106786       10.1424079635      -38.1497275297  TIP3      4201            0.0000000000
     26071      4347  TIP3      H2             -2.7177065807       11.5834877157      -38.3382575045  TIP3      4201            0.0000000000
     26072      4348  TIP3      OH2            -0.8977090911       26.2309661186      -40.4878571357  TIP3      4202            0.0000000000
     26073      4348  TIP3      H1             -0.1947424884       26.7218337174      -40.9516336142  TIP3      4202            0.0000000000
     26074      4348  TIP3      H2             -0.6237790293       25.3335674428      -40.7934662064  TIP3      4202            0.0000000000
     26075      4349  TIP3      OH2             5.5200047754       24.6516132825      -37.5468223432  TIP3      4203            0.0000000000
     26076      4349  TIP3      H1              5.5517996976       23.8988458240      -38.1727884472  TIP3      4203            0.0000000000
     26077      4349  TIP3      H2              5.3416083509       25.4119270641      -38.1492460998  TIP3      4203            0.0000000000
     26078      4350  TIP3      OH2            -8.6740763171        8.9260032762      -26.0846789016  TIP3      4204            0.0000000000
     26079      4350  TIP3      H1             -9.1776115314        8.1118884216      -26.3025087104  TIP3      4204            0.0000000000
     26080      4350  TIP3      H2             -7.8568598934        8.6055058865      -25.6399711180  TIP3      4204            0.0000000000
     26081      4351  TIP3      OH2            -6.5297988435        8.1084705174      -24.4608759646  TIP3      4205            0.0000000000
     26082      4351  TIP3      H1             -5.6989277091        7.8094972748      -24.8669451497  TIP3      4205            0.0000000000
     26083      4351  TIP3      H2             -6.9676676894        7.2954373601      -24.1673676821  TIP3      4205            0.0000000000
     26084      4352  TIP3      OH2            -8.2019836474       25.3756371612      -41.6034128396  TIP3      4206            0.0000000000
     26085      4352  TIP3      H1             -8.4754747151       25.8983289142      -40.8309014685  TIP3      4206            0.0000000000
     26086      4352  TIP3      H2             -7.9798598302       24.5067057773      -41.2516816066  TIP3      4206            0.0000000000
     26087      4353  TIP3      OH2             2.1178228849        7.1025592494      -23.7435024610  TIP3      4207            0.0000000000
     26088      4353  TIP3      H1              1.4003323341        6.9191117553      -24.3780025398  TIP3      4207            0.0000000000
     26089      4353  TIP3      H2              2.8979179018        7.1396524881      -24.3555313691  TIP3      4207            0.0000000000
     26090      4354  TIP3      OH2             4.8416910630       23.6794799179      -25.7580000887  TIP3      4208            0.0000000000
     26091      4354  TIP3      H1              4.4257660536       23.6143753665      -26.6409454378  TIP3      4208            0.0000000000
     26092      4354  TIP3      H2              4.1761210897       24.2740547484      -25.3698393774  TIP3      4208            0.0000000000
     26093      4355  TIP3      OH2            19.6952457282       17.8199558217      -35.6689136794  TIP3      4209            0.0000000000
     26094      4355  TIP3      H1             19.4955932161       18.7778287626      -35.7168500618  TIP3      4209            0.0000000000
     26095      4355  TIP3      H2             18.9544679994       17.4576705605      -36.1814786357  TIP3      4209            0.0000000000
     26096      4356  TIP3      OH2            18.2908901925       16.2406852124      -32.4909206169  TIP3      4210            0.0000000000
     26097      4356  TIP3      H1             18.2198095894       15.8553362706      -31.5934048142  TIP3      4210            0.0000000000
     26098      4356  TIP3      H2             17.4217871101       16.0445278401      -32.8920566466  TIP3      4210            0.0000000000
     26099      4357  TIP3      OH2            10.4667464098       16.3148883784      -30.8945212034  TIP3      4211            0.0000000000
     26100      4357  TIP3      H1             10.4572232804       15.5359614891      -30.3064642516  TIP3      4211            0.0000000000
     26101      4357  TIP3      H2             11.4288236851       16.5045186126      -30.9308400475  TIP3      4211            0.0000000000
     26102      4358  TIP3      OH2            21.7663232382       19.8419622814      -33.5705720721  TIP3      4212            0.0000000000
     26103      4358  TIP3      H1             21.6453358568       19.1045277323      -32.9530135799  TIP3      4212            0.0000000000
     26104      4358  TIP3      H2             22.1654398291       20.5200100594      -32.9953244454  TIP3      4212            0.0000000000
     26105      4359  TIP3      OH2            11.8199236234       21.1130683958      -32.4857870184  TIP3      4213            0.0000000000
     26106      4359  TIP3      H1             11.4480235276       20.2715145061      -32.8124651561  TIP3      4213            0.0000000000
     26107      4359  TIP3      H2             12.7811452365       20.9322773989      -32.5758014388  TIP3      4213            0.0000000000
     26108      4360  TIP3      OH2             8.5313379652       14.5354850157      -36.9127351017  TIP3      4214            0.0000000000
     26109      4360  TIP3      H1              7.9624810833       15.1474551795      -36.4290553302  TIP3      4214            0.0000000000
     26110      4360  TIP3      H2              8.0607210106       14.5112004917      -37.7587087622  TIP3      4214            0.0000000000
     26111      4361  TIP3      OH2             8.4005489869       16.4921803273      -34.2759784669  TIP3      4215            0.0000000000
     26112      4361  TIP3      H1              8.8041048991       15.6082748782      -34.0873219064  TIP3      4215            0.0000000000
     26113      4361  TIP3      H2              9.1624651161       17.0247226635      -34.5665570067  TIP3      4215            0.0000000000
     26114      4362  TIP3      OH2            19.1769481098       25.2517193363      -33.7554487854  TIP3      4216            0.0000000000
     26115      4362  TIP3      H1             19.5994141404       24.6155407039      -34.3778793581  TIP3      4216            0.0000000000
     26116      4362  TIP3      H2             18.8114587174       24.6162048951      -33.1291466282  TIP3      4216            0.0000000000
     26117      4363  TIP3      OH2            16.2515858750       19.2342017748      -31.3658879047  TIP3      4217            0.0000000000
     26118      4363  TIP3      H1             16.7240755032       19.0506013863      -32.1923391821  TIP3      4217            0.0000000000
     26119      4363  TIP3      H2             17.0113915627       19.3925731352      -30.7695284604  TIP3      4217            0.0000000000
     26120      4364  TIP3      OH2            25.4772541585       10.8424174072      -31.4491505326  TIP3      4218            0.0000000000
     26121      4364  TIP3      H1             25.4736476542       11.4416975535      -30.6790616589  TIP3      4218            0.0000000000
     26122      4364  TIP3      H2             26.0928378553       11.3110426185      -32.0371717460  TIP3      4218            0.0000000000
     26123      4365  TIP3      OH2            20.2706750218       13.6408395726      -31.2324145695  TIP3      4219            0.0000000000
     26124      4365  TIP3      H1             20.4637232633       12.7152439731      -31.0096539131  TIP3      4219            0.0000000000
     26125      4365  TIP3      H2             20.0806343815       13.5832982202      -32.1865879523  TIP3      4219            0.0000000000
     26126      4366  TIP3      OH2            12.9552276805       11.5041166926      -34.4678642527  TIP3      4220            0.0000000000
     26127      4366  TIP3      H1             13.1075232952       12.3170849864      -34.9977645985  TIP3      4220            0.0000000000
     26128      4366  TIP3      H2             12.5246952865       10.9434997133      -35.1378501094  TIP3      4220            0.0000000000
     26129      4367  TIP3      OH2            20.3088645240       11.8531286816      -35.8386521170  TIP3      4221            0.0000000000
     26130      4367  TIP3      H1             20.8402512613       11.3844659192      -35.1553427947  TIP3      4221            0.0000000000
     26131      4367  TIP3      H2             20.8808742079       12.6148457736      -36.0082751715  TIP3      4221            0.0000000000
     26132      4368  TIP3      OH2             9.4600516648       14.0384744609      -33.4465335716  TIP3      4222            0.0000000000
     26133      4368  TIP3      H1             10.1299889769       13.6161541309      -32.8673571215  TIP3      4222            0.0000000000
     26134      4368  TIP3      H2              9.7269294339       13.6793696260      -34.3205047363  TIP3      4222            0.0000000000
     26135      4369  TIP3      OH2            14.0378596245       15.7492318361      -34.1164020825  TIP3      4223            0.0000000000
     26136      4369  TIP3      H1             14.9036104015       15.3466726864      -33.8957000408  TIP3      4223            0.0000000000
     26137      4369  TIP3      H2             13.6607939018       15.0352832570      -34.6716576676  TIP3      4223            0.0000000000
     26138      4370  TIP3      OH2            25.5404310541       12.0504347976      -28.8088789268  TIP3      4224            0.0000000000
     26139      4370  TIP3      H1             25.1849275441       12.8898736655      -29.1840260127  TIP3      4224            0.0000000000
     26140      4370  TIP3      H2             25.7261544200       12.3559003680      -27.9032077146  TIP3      4224            0.0000000000
     26141      4371  TIP3      OH2            11.9371412704       10.6563402209      -30.2033612124  TIP3      4225            0.0000000000
     26142      4371  TIP3      H1             11.4173451835       11.1248770402      -30.8903706714  TIP3      4225            0.0000000000
     26143      4371  TIP3      H2             11.2854118356       10.6502100346      -29.4800084765  TIP3      4225            0.0000000000
     26144      4372  TIP3      OH2            18.7870554587       20.1910888845      -36.8429032523  TIP3      4226            0.0000000000
     26145      4372  TIP3      H1             18.5183547773       20.1565498143      -37.7809934368  TIP3      4226            0.0000000000
     26146      4372  TIP3      H2             18.4011032173       21.0554048498      -36.5740021364  TIP3      4226            0.0000000000
     26147      4373  TIP3      OH2            14.0233307564       18.3153253043      -30.1967361562  TIP3      4227            0.0000000000
     26148      4373  TIP3      H1             13.4723291816       19.0265749378      -29.7913558947  TIP3      4227            0.0000000000
     26149      4373  TIP3      H2             14.7893249684       18.8187165654      -30.5524758077  TIP3      4227            0.0000000000
     26150      4374  TIP3      OH2            22.3108645009       11.3397207205      -33.8126816441  TIP3      4228            0.0000000000
     26151      4374  TIP3      H1             22.0341175069       10.9067337357      -32.9924427931  TIP3      4228            0.0000000000
     26152      4374  TIP3      H2             23.1865332900       11.6866234160      -33.5803439881  TIP3      4228            0.0000000000
     26153      4375  TIP3      OH2            11.5220741061       12.5645676167      -32.3248792592  TIP3      4229            0.0000000000
     26154      4375  TIP3      H1             12.1158206360       13.1815870984      -31.8283963430  TIP3      4229            0.0000000000
     26155      4375  TIP3      H2             12.1097980358       12.2956542120      -33.0682343285  TIP3      4229            0.0000000000
     26156      4376  TIP3      OH2            12.9001810113       20.6139586373      -29.3564060520  TIP3      4230            0.0000000000
     26157      4376  TIP3      H1             12.7706016197       21.4371205018      -29.8407045016  TIP3      4230            0.0000000000
     26158      4376  TIP3      H2             12.0344796499       20.5316290035      -28.8826990409  TIP3      4230            0.0000000000
     26159      4377  TIP3      OH2             8.5323443783       20.1757904748      -38.3863328615  TIP3      4231            0.0000000000
     26160      4377  TIP3      H1              8.7267457032       20.5922784756      -39.2504599512  TIP3      4231            0.0000000000
     26161      4377  TIP3      H2              8.7617365433       20.8926614084      -37.7488400697  TIP3      4231            0.0000000000
     26162      4378  TIP3      OH2            22.7494696041       21.8441008557      -31.8980069057  TIP3      4232            0.0000000000
     26163      4378  TIP3      H1             21.8198500394       21.8701882054      -31.5809983569  TIP3      4232            0.0000000000
     26164      4378  TIP3      H2             22.8151193687       22.7772842228      -32.1940354097  TIP3      4232            0.0000000000
     26165      4379  TIP3      OH2            22.9266823050       10.9032982787      -30.0290946359  TIP3      4233            0.0000000000
     26166      4379  TIP3      H1             22.3110963246       11.1487520354      -30.7426900881  TIP3      4233            0.0000000000
     26167      4379  TIP3      H2             23.7815897715       10.8387012567      -30.4973005867  TIP3      4233            0.0000000000
     26168      4380  TIP3      OH2            15.3119898003        7.9384439034      -32.7292372005  TIP3      4234            0.0000000000
     26169      4380  TIP3      H1             14.9813722642        7.0284951652      -32.7000319514  TIP3      4234            0.0000000000
     26170      4380  TIP3      H2             14.4885944288        8.4382029676      -32.4912298751  TIP3      4234            0.0000000000
     26171      4381  TIP3      OH2            20.3634741606       23.7167241607      -35.5744897608  TIP3      4235            0.0000000000
     26172      4381  TIP3      H1             20.7856422764       22.8845206678      -35.8941536077  TIP3      4235            0.0000000000
     26173      4381  TIP3      H2             21.1662471513       24.2976079958      -35.6068395535  TIP3      4235            0.0000000000
     26174      4382  TIP3      OH2            21.8218192510       21.6649111607      -36.7974920103  TIP3      4236            0.0000000000
     26175      4382  TIP3      H1             21.6038397708       21.0450195253      -37.5208081240  TIP3      4236            0.0000000000
     26176      4382  TIP3      H2             21.6718323906       21.0739295294      -36.0414821438  TIP3      4236            0.0000000000
     26177      4383  TIP3      OH2            23.3355919480       20.0222323984      -27.8763180432  TIP3      4237            0.0000000000
     26178      4383  TIP3      H1             23.4340311748       19.4070652467      -28.6449522762  TIP3      4237            0.0000000000
     26179      4383  TIP3      H2             23.4239848583       20.8624357165      -28.3719712530  TIP3      4237            0.0000000000
     26180      4384  TIP3      OH2            18.0894706010       17.1961899538      -38.2531800421  TIP3      4238            0.0000000000
     26181      4384  TIP3      H1             17.4110514955       17.8510771841      -38.5510620863  TIP3      4238            0.0000000000
     26182      4384  TIP3      H2             18.8508177309       17.3819969242      -38.8420369132  TIP3      4238            0.0000000000
     26183      4385  TIP3      OH2            18.0901701845       15.7837498725      -40.8766736578  TIP3      4239            0.0000000000
     26184      4385  TIP3      H1             18.8575856669       16.0952698198      -40.3564867242  TIP3      4239            0.0000000000
     26185      4385  TIP3      H2             18.4971120726       15.1725082581      -41.4961347561  TIP3      4239            0.0000000000
     26186      4386  TIP3      OH2            25.0071071231       16.5923464520      -29.8067716778  TIP3      4240            0.0000000000
     26187      4386  TIP3      H1             24.3889251798       17.3070144784      -30.0592576449  TIP3      4240            0.0000000000
     26188      4386  TIP3      H2             25.7981758852       16.9050761009      -30.2659494817  TIP3      4240            0.0000000000
     26189      4387  TIP3      OH2            21.7981636074       17.2963421270      -37.1946262432  TIP3      4241            0.0000000000
     26190      4387  TIP3      H1             21.0198814678       17.5066445057      -36.6204429081  TIP3      4241            0.0000000000
     26191      4387  TIP3      H2             22.4135796767       16.9622486150      -36.5002904114  TIP3      4241            0.0000000000
     26192      4388  TIP3      OH2            21.1519101555       14.9942153319      -27.7128843133  TIP3      4242            0.0000000000
     26193      4388  TIP3      H1             21.3400519323       15.9284119928      -27.5250531087  TIP3      4242            0.0000000000
     26194      4388  TIP3      H2             20.5714460627       15.0933022956      -28.4885259127  TIP3      4242            0.0000000000
     26195      4389  TIP3      OH2            12.6186804608       17.3559504529      -35.7518560279  TIP3      4243            0.0000000000
     26196      4389  TIP3      H1             12.8143030403       17.0376037953      -36.6591731982  TIP3      4243            0.0000000000
     26197      4389  TIP3      H2             13.2750138977       16.8708374711      -35.2156622982  TIP3      4243            0.0000000000
     26198      4390  TIP3      OH2            14.5076538006       20.8907132294      -32.6997923373  TIP3      4244            0.0000000000
     26199      4390  TIP3      H1             14.7295325139       20.7686817407      -33.6355133114  TIP3      4244            0.0000000000
     26200      4390  TIP3      H2             15.1269100729       20.2870720037      -32.2359858110  TIP3      4244            0.0000000000
     26201      4391  TIP3      OH2            13.0510347152       16.3717520345      -31.6444426519  TIP3      4245            0.0000000000
     26202      4391  TIP3      H1             13.4207226164       16.3810848344      -32.5586076939  TIP3      4245            0.0000000000
     26203      4391  TIP3      H2             13.5857052828       17.0540077833      -31.1635038315  TIP3      4245            0.0000000000
     26204      4392  TIP3      OH2            20.1658250420       22.0435945525      -31.0707881210  TIP3      4246            0.0000000000
     26205      4392  TIP3      H1             20.0054398204       22.8475104795      -30.5406365377  TIP3      4246            0.0000000000
     26206      4392  TIP3      H2             19.6251812683       21.4059474757      -30.5814836006  TIP3      4246            0.0000000000
     26207      4393  TIP3      OH2            14.4270749550       20.7447058308      -27.0931562656  TIP3      4247            0.0000000000
     26208      4393  TIP3      H1             13.7485407997       21.3059107071      -26.6448392270  TIP3      4247            0.0000000000
     26209      4393  TIP3      H2             13.9961991033       20.6348765739      -27.9727114526  TIP3      4247            0.0000000000
     26210      4394  TIP3      OH2            20.4162750355       16.6696642274      -39.4267987388  TIP3      4248            0.0000000000
     26211      4394  TIP3      H1             20.9302515914       16.8224852906      -38.5985974757  TIP3      4248            0.0000000000
     26212      4394  TIP3      H2             20.9488024990       17.1867721574      -40.0724231839  TIP3      4248            0.0000000000
     26213      4395  TIP3      OH2            11.4038882769       16.8006559770      -27.6637484236  TIP3      4249            0.0000000000
     26214      4395  TIP3      H1             11.4138598384       17.4770457199      -26.9743011247  TIP3      4249            0.0000000000
     26215      4395  TIP3      H2             10.4425007550       16.6533621091      -27.7221427012  TIP3      4249            0.0000000000
     26216      4396  TIP3      OH2            17.7512214123       22.9091662781      -36.4459896804  TIP3      4250            0.0000000000
     26217      4396  TIP3      H1             18.5377754997       23.2666133562      -36.0018752044  TIP3      4250            0.0000000000
     26218      4396  TIP3      H2             17.4620310859       23.6539583408      -36.9868788527  TIP3      4250            0.0000000000
     26219      4397  TIP3      OH2            12.5969029024       22.5019966279      -26.1885545625  TIP3      4251            0.0000000000
     26220      4397  TIP3      H1             12.4509127796       22.9249647179      -27.0642224258  TIP3      4251            0.0000000000
     26221      4397  TIP3      H2             11.7622687960       22.0072893450      -26.0392275937  TIP3      4251            0.0000000000
     26222      4398  TIP3      OH2            24.1965106780        7.9507756028      -39.1438203886  TIP3      4252            0.0000000000
     26223      4398  TIP3      H1             23.2133175925        7.9829578813      -39.1813353778  TIP3      4252            0.0000000000
     26224      4398  TIP3      H2             24.3910536140        8.7870578512      -39.5961062856  TIP3      4252            0.0000000000
     26225      4399  TIP3      OH2            12.1463897100       16.3943855506      -38.2696242310  TIP3      4253            0.0000000000
     26226      4399  TIP3      H1             11.5296122049       17.1667298114      -38.3608905361  TIP3      4253            0.0000000000
     26227      4399  TIP3      H2             11.5377274704       15.6410918991      -38.2512453535  TIP3      4253            0.0000000000
     26228      4400  TIP3      OH2            25.1216485306       22.2843781026      -41.6421046357  TIP3      4254            0.0000000000
     26229      4400  TIP3      H1             25.4428659758       23.2094255063      -41.5936693622  TIP3      4254            0.0000000000
     26230      4400  TIP3      H2             25.9320076592       21.8053065924      -41.3907855546  TIP3      4254            0.0000000000
     26231      4401  TIP3      OH2             8.3165130875       19.3000946146      -28.9175222917  TIP3      4255            0.0000000000
     26232      4401  TIP3      H1              7.8048100260       19.2567280159      -29.7485739977  TIP3      4255            0.0000000000
     26233      4401  TIP3      H2              8.6726914066       18.3904664190      -28.8734881532  TIP3      4255            0.0000000000
     26234      4402  TIP3      OH2             8.3213601376       21.7696501157      -32.1900619748  TIP3      4256            0.0000000000
     26235      4402  TIP3      H1              9.1708404755       21.5222726680      -31.8116254819  TIP3      4256            0.0000000000
     26236      4402  TIP3      H2              8.0806321810       22.5687488962      -31.6873971330  TIP3      4256            0.0000000000
     26237      4403  TIP3      OH2            26.1951149900       22.8097077181      -26.3972517150  TIP3      4257            0.0000000000
     26238      4403  TIP3      H1             26.1017613516       21.8790225195      -26.6257459004  TIP3      4257            0.0000000000
     26239      4403  TIP3      H2             25.2873130992       22.9714295932      -26.0598369631  TIP3      4257            0.0000000000
     26240      4404  TIP3      OH2            16.9753453763       21.9394829272      -27.4287276737  TIP3      4258            0.0000000000
     26241      4404  TIP3      H1             17.2094099974       22.5404574985      -26.6954132664  TIP3      4258            0.0000000000
     26242      4404  TIP3      H2             16.1046631128       21.5961086117      -27.1498115618  TIP3      4258            0.0000000000
     26243      4405  TIP3      OH2            17.7131588190       25.9058811257      -37.8625911924  TIP3      4259            0.0000000000
     26244      4405  TIP3      H1             17.7488260942       26.1629020941      -38.8087069604  TIP3      4259            0.0000000000
     26245      4405  TIP3      H2             17.4799359045       26.7612147523      -37.4497218416  TIP3      4259            0.0000000000
     26246      4406  TIP3      OH2            11.2507281931       24.5132185659      -35.7163610026  TIP3      4260            0.0000000000
     26247      4406  TIP3      H1             11.5538607638       24.1073958602      -34.8670189956  TIP3      4260            0.0000000000
     26248      4406  TIP3      H2             10.3330565134       24.2056650839      -35.7838066570  TIP3      4260            0.0000000000
     26249      4407  TIP3      OH2            20.6711136021       25.7929661308      -40.9975292084  TIP3      4261            0.0000000000
     26250      4407  TIP3      H1             21.1921240992       25.1174644825      -41.4488500943  TIP3      4261            0.0000000000
     26251      4407  TIP3      H2             20.6834675094       25.4698424836      -40.0739266215  TIP3      4261            0.0000000000
     26252      4408  TIP3      OH2            20.3981408717       25.2740448027      -38.2540299265  TIP3      4262            0.0000000000
     26253      4408  TIP3      H1             19.4421000106       25.2377224302      -38.0437796242  TIP3      4262            0.0000000000
     26254      4408  TIP3      H2             20.7774565493       24.6860802944      -37.5763819211  TIP3      4262            0.0000000000
     26255      4409  TIP3      OH2            23.3822336918       14.0271614673      -26.3297648222  TIP3      4263            0.0000000000
     26256      4409  TIP3      H1             22.4521527147       14.2783099638      -26.4752806645  TIP3      4263            0.0000000000
     26257      4409  TIP3      H2             23.3560407766       13.0486525192      -26.3381583419  TIP3      4263            0.0000000000
     26258      4410  TIP3      OH2            10.6020049517       20.5002284916      -28.0418060223  TIP3      4264            0.0000000000
     26259      4410  TIP3      H1             10.5151802392       19.9160844532      -27.2493693934  TIP3      4264            0.0000000000
     26260      4410  TIP3      H2              9.7999609456       20.2236433685      -28.5437600239  TIP3      4264            0.0000000000
     26261      4411  TIP3      OH2            13.0947941410        9.1530973016      -32.0485834156  TIP3      4265            0.0000000000
     26262      4411  TIP3      H1             12.2087348401        9.1708937493      -32.4594379040  TIP3      4265            0.0000000000
     26263      4411  TIP3      H2             12.9215715510        9.6620484825      -31.2289286441  TIP3      4265            0.0000000000
     26264      4412  TIP3      OH2            17.8961197807        8.6160688785      -28.7954080198  TIP3      4266            0.0000000000
     26265      4412  TIP3      H1             18.0529944975        8.2637119174      -27.9062019251  TIP3      4266            0.0000000000
     26266      4412  TIP3      H2             16.9114377032        8.6176973293      -28.8512323861  TIP3      4266            0.0000000000
     26267      4413  TIP3      OH2            20.7696679707       12.3062139923      -27.7230419032  TIP3      4267            0.0000000000
     26268      4413  TIP3      H1             20.2106256412       12.0518379138      -26.9573384351  TIP3      4267            0.0000000000
     26269      4413  TIP3      H2             20.8996411205       13.2667512136      -27.5771984363  TIP3      4267            0.0000000000
     26270      4414  TIP3      OH2            21.7925880614       17.7172635458      -41.4052280790  TIP3      4268            0.0000000000
     26271      4414  TIP3      H1             21.4824371434       17.4624628874      -42.2919005655  TIP3      4268            0.0000000000
     26272      4414  TIP3      H2             22.6973980920       18.0264763147      -41.6020223548  TIP3      4268            0.0000000000
     26273      4415  TIP3      OH2            17.5007625656       11.6722953463      -41.2074388259  TIP3      4269            0.0000000000
     26274      4415  TIP3      H1             17.0635685695       11.5135639631      -40.3560016698  TIP3      4269            0.0000000000
     26275      4415  TIP3      H2             17.2841035966       10.8377935980      -41.6508965820  TIP3      4269            0.0000000000
     26276      4416  TIP3      OH2            13.1667634110       13.8665388771      -30.7524948349  TIP3      4270            0.0000000000
     26277      4416  TIP3      H1             12.4965187847       13.9304457078      -30.0429591935  TIP3      4270            0.0000000000
     26278      4416  TIP3      H2             13.1257619795       14.7851577612      -31.0967006838  TIP3      4270            0.0000000000
     26279      4417  TIP3      OH2            13.1229363191       13.6123274523      -36.0641296265  TIP3      4271            0.0000000000
     26280      4417  TIP3      H1             12.1484974222       13.6014964736      -36.1379757564  TIP3      4271            0.0000000000
     26281      4417  TIP3      H2             13.4322456515       13.4478871676      -36.9832223826  TIP3      4271            0.0000000000
     26282      4418  TIP3      OH2            18.8883530350       14.9995447014      -36.9109340561  TIP3      4272            0.0000000000
     26283      4418  TIP3      H1             18.5815284984       15.8083164407      -37.3845013976  TIP3      4272            0.0000000000
     26284      4418  TIP3      H2             19.4658712639       14.6325787160      -37.6098770529  TIP3      4272            0.0000000000
     26285      4419  TIP3      OH2            17.4910150991       14.8946501422      -25.5949333115  TIP3      4273            0.0000000000
     26286      4419  TIP3      H1             17.0611805670       14.0664410228      -25.2738010811  TIP3      4273            0.0000000000
     26287      4419  TIP3      H2             18.3143969096       14.9295276989      -25.0508892498  TIP3      4273            0.0000000000
     26288      4420  TIP3      OH2            19.8900947966       14.4440781350      -33.9909164921  TIP3      4274            0.0000000000
     26289      4420  TIP3      H1             19.5190757503       15.3218389269      -34.2144602721  TIP3      4274            0.0000000000
     26290      4420  TIP3      H2             19.7118578425       13.9738915540      -34.8225383215  TIP3      4274            0.0000000000
     26291      4421  TIP3      OH2            10.7560540317       13.9173186503      -29.4261925867  TIP3      4275            0.0000000000
     26292      4421  TIP3      H1             11.2561441990       14.2691291346      -28.6708258755  TIP3      4275            0.0000000000
     26293      4421  TIP3      H2             10.3310977783       13.1199738738      -29.0812536707  TIP3      4275            0.0000000000
     26294      4422  TIP3      OH2            14.0578545506       11.8903727176      -41.7408005498  TIP3      4276            0.0000000000
     26295      4422  TIP3      H1             13.7045710663       11.3347801095      -41.0090970030  TIP3      4276            0.0000000000
     26296      4422  TIP3      H2             13.6603686186       12.7580449414      -41.5538242110  TIP3      4276            0.0000000000
     26297      4423  TIP3      OH2             7.6610604063       11.1606132279      -34.9581815709  TIP3      4277            0.0000000000
     26298      4423  TIP3      H1              8.4107076590       11.3945539471      -34.3900349191  TIP3      4277            0.0000000000
     26299      4423  TIP3      H2              7.9490372117       11.5220685552      -35.8086124659  TIP3      4277            0.0000000000
     26300      4424  TIP3      OH2             8.5477399000       11.9188134646      -39.8027008074  TIP3      4278            0.0000000000
     26301      4424  TIP3      H1              9.2016457154       12.2136104708      -40.4632045795  TIP3      4278            0.0000000000
     26302      4424  TIP3      H2              7.9771124888       12.7198476920      -39.7752985989  TIP3      4278            0.0000000000
     26303      4425  TIP3      OH2            18.6739417556       15.3587928632      -29.8125231697  TIP3      4279            0.0000000000
     26304      4425  TIP3      H1             19.2902272953       14.7023922057      -30.2085586975  TIP3      4279            0.0000000000
     26305      4425  TIP3      H2             18.1355219443       14.8113173401      -29.1891753345  TIP3      4279            0.0000000000
     26306      4426  TIP3      OH2            16.2000491961       11.3049824500      -35.1938157296  TIP3      4280            0.0000000000
     26307      4426  TIP3      H1             15.2406644837       11.2465493446      -35.0396732405  TIP3      4280            0.0000000000
     26308      4426  TIP3      H2             16.5649306344       11.0687049476      -34.3152485644  TIP3      4280            0.0000000000
     26309      4427  TIP3      OH2            10.4795786789       12.9695702987      -35.8771564621  TIP3      4281            0.0000000000
     26310      4427  TIP3      H1              9.8776383927       13.4874061508      -36.4667287234  TIP3      4281            0.0000000000
     26311      4427  TIP3      H2             10.6668359236       12.1507209826      -36.3882248497  TIP3      4281            0.0000000000
     26312      4428  TIP3      OH2            14.1267089397       13.3124102966      -38.7005463842  TIP3      4282            0.0000000000
     26313      4428  TIP3      H1             15.0201359866       13.6406839388      -38.5112768120  TIP3      4282            0.0000000000
     26314      4428  TIP3      H2             13.7993699981       13.8869196196      -39.4386162920  TIP3      4282            0.0000000000
     26315      4429  TIP3      OH2            20.4958426902       10.6565458732      -31.7421350126  TIP3      4283            0.0000000000
     26316      4429  TIP3      H1             19.7271955272       10.7340651944      -31.1426409089  TIP3      4283            0.0000000000
     26317      4429  TIP3      H2             20.1196926824       10.1636903794      -32.4891232243  TIP3      4283            0.0000000000
     26318      4430  TIP3      OH2            13.1913148670       14.5332289014      -40.9970964106  TIP3      4284            0.0000000000
     26319      4430  TIP3      H1             12.6355825596       14.6528202538      -41.7818388547  TIP3      4284            0.0000000000
     26320      4430  TIP3      H2             14.0270005949       14.9456738568      -41.3201413575  TIP3      4284            0.0000000000
     26321      4431  TIP3      OH2            23.0130220609       26.2270325547      -25.1099591146  TIP3      4285            0.0000000000
     26322      4431  TIP3      H1             23.2671276246       26.3885839246      -26.0469847971  TIP3      4285            0.0000000000
     26323      4431  TIP3      H2             23.7786969510       26.6063390238      -24.6549484359  TIP3      4285            0.0000000000
     26324      4432  TIP3      OH2            10.5868404985       18.8613588143      -25.9365410698  TIP3      4286            0.0000000000
     26325      4432  TIP3      H1             11.3814041839       19.0894106191      -25.3906174477  TIP3      4286            0.0000000000
     26326      4432  TIP3      H2              9.8813689191       18.8458754044      -25.2524303230  TIP3      4286            0.0000000000
     26327      4433  TIP3      OH2            16.3598228678       14.4214028063      -33.2670718127  TIP3      4287            0.0000000000
     26328      4433  TIP3      H1             17.2872942371       14.1686157749      -33.4160394020  TIP3      4287            0.0000000000
     26329      4433  TIP3      H2             16.0766985647       13.7826198543      -32.5944172485  TIP3      4287            0.0000000000
     26330      4434  TIP3      OH2            11.5529697747       10.4524076905      -36.6991805461  TIP3      4288            0.0000000000
     26331      4434  TIP3      H1             10.9898824116        9.8223131992      -36.2044559872  TIP3      4288            0.0000000000
     26332      4434  TIP3      H2             12.1102547339        9.8138091115      -37.1735057812  TIP3      4288            0.0000000000
     26333      4435  TIP3      OH2            15.3493822828       12.4308014960      -30.6185814737  TIP3      4289            0.0000000000
     26334      4435  TIP3      H1             14.5611472247       13.0304614458      -30.6545757414  TIP3      4289            0.0000000000
     26335      4435  TIP3      H2             16.0394273073       12.9787425077      -30.2203100771  TIP3      4289            0.0000000000
     26336      4436  TIP3      OH2            16.1760882039       19.2036631582      -38.5249029705  TIP3      4290            0.0000000000
     26337      4436  TIP3      H1             15.5063302471       18.6924162433      -39.0208118471  TIP3      4290            0.0000000000
     26338      4436  TIP3      H2             15.7263390804       19.3351998695      -37.6608046858  TIP3      4290            0.0000000000
     26339      4437  TIP3      OH2            23.4262012550       18.7705999084      -30.1689621375  TIP3      4291            0.0000000000
     26340      4437  TIP3      H1             24.0624644219       19.1276804368      -30.8419157868  TIP3      4291            0.0000000000
     26341      4437  TIP3      H2             22.6656632757       18.4751324139      -30.7103987002  TIP3      4291            0.0000000000
     26342      4438  TIP3      OH2            20.0683789961       12.0319506943      -40.5876404411  TIP3      4292            0.0000000000
     26343      4438  TIP3      H1             19.1333378811       12.1136922507      -40.8568944705  TIP3      4292            0.0000000000
     26344      4438  TIP3      H2             20.2291713109       12.8652790293      -40.1101604998  TIP3      4292            0.0000000000
     26345      4439  TIP3      OH2            17.4117396151       19.1706257398      -27.5043130219  TIP3      4293            0.0000000000
     26346      4439  TIP3      H1             17.2158417430       18.9414041907      -26.5738310013  TIP3      4293            0.0000000000
     26347      4439  TIP3      H2             17.2333388056       20.1292597977      -27.4901889746  TIP3      4293            0.0000000000
     26348      4440  TIP3      OH2            20.6970323574       14.0633551478      -38.7998618485  TIP3      4294            0.0000000000
     26349      4440  TIP3      H1             21.4513461637       13.8285661672      -38.2181360731  TIP3      4294            0.0000000000
     26350      4440  TIP3      H2             21.0588089447       14.8116045654      -39.3152204366  TIP3      4294            0.0000000000
     26351      4441  TIP3      OH2            11.2055227538       18.4900029337      -33.2896793958  TIP3      4295            0.0000000000
     26352      4441  TIP3      H1             11.4614965060       18.1646936761      -34.1717030373  TIP3      4295            0.0000000000
     26353      4441  TIP3      H2             11.5446230213       17.8013952599      -32.6895346524  TIP3      4295            0.0000000000
     26354      4442  TIP3      OH2            18.5636212944       20.5268362483      -39.9435777951  TIP3      4296            0.0000000000
     26355      4442  TIP3      H1             17.9846164309       21.2848633364      -39.6960470317  TIP3      4296            0.0000000000
     26356      4442  TIP3      H2             17.8989631506       19.8480739311      -40.1734637443  TIP3      4296            0.0000000000
     26357      4443  TIP3      OH2             8.6140174863       16.6343519529      -28.0477636230  TIP3      4297            0.0000000000
     26358      4443  TIP3      H1              8.2663483423       16.0319093088      -27.3580630304  TIP3      4297            0.0000000000
     26359      4443  TIP3      H2              7.9915666401       16.4167814540      -28.7590449781  TIP3      4297            0.0000000000
     26360      4444  TIP3      OH2            15.1495593173       16.2347954425      -25.9222208408  TIP3      4298            0.0000000000
     26361      4444  TIP3      H1             14.8584735913       15.5121005237      -26.4931109679  TIP3      4298            0.0000000000
     26362      4444  TIP3      H2             15.9954780764       15.8563631642      -25.5674328729  TIP3      4298            0.0000000000
     26363      4445  TIP3      OH2            20.3603884488       21.4589662436      -27.6054512163  TIP3      4299            0.0000000000
     26364      4445  TIP3      H1             19.4819378685       21.6184697375      -27.9734239628  TIP3      4299            0.0000000000
     26365      4445  TIP3      H2             20.2358958457       21.7610577008      -26.6885722524  TIP3      4299            0.0000000000
     26366      4446  TIP3      OH2            25.5830928588       13.7875686611      -38.9949292525  TIP3      4300            0.0000000000
     26367      4446  TIP3      H1             24.8550593305       13.7406707266      -39.6514517668  TIP3      4300            0.0000000000
     26368      4446  TIP3      H2             25.8811837169       14.7017723556      -39.1833245999  TIP3      4300            0.0000000000
     26369      4447  TIP3      OH2            25.5354685117       19.6514576468      -26.4533650122  TIP3      4301            0.0000000000
     26370      4447  TIP3      H1             24.6955749373       19.9199739432      -26.8902432621  TIP3      4301            0.0000000000
     26371      4447  TIP3      H2             26.1529782397       19.6582055256      -27.2146000484  TIP3      4301            0.0000000000
     26372      4448  TIP3      OH2            24.2945012673       22.4337175175      -39.0257144894  TIP3      4302            0.0000000000
     26373      4448  TIP3      H1             23.6374190726       21.8243676757      -38.6647551459  TIP3      4302            0.0000000000
     26374      4448  TIP3      H2             24.3311395269       22.2078181895      -39.9708415882  TIP3      4302            0.0000000000
     26375      4449  TIP3      OH2            21.2169962162       17.6836185329      -31.9350198606  TIP3      4303            0.0000000000
     26376      4449  TIP3      H1             20.3209973743       17.4383191650      -32.1996699582  TIP3      4303            0.0000000000
     26377      4449  TIP3      H2             21.7089505803       16.9262911661      -32.3338550307  TIP3      4303            0.0000000000
     26378      4450  TIP3      OH2            13.6815138545       21.9676882368      -35.7687675384  TIP3      4304            0.0000000000
     26379      4450  TIP3      H1             13.9700371434       22.8028288704      -36.1969131094  TIP3      4304            0.0000000000
     26380      4450  TIP3      H2             12.7213768710       22.0407539889      -35.8597432992  TIP3      4304            0.0000000000
     26381      4451  TIP3      OH2             9.6149248314       16.7722149949      -41.1719805001  TIP3      4305            0.0000000000
     26382      4451  TIP3      H1             10.0817686336       17.2348518022      -40.4446277622  TIP3      4305            0.0000000000
     26383      4451  TIP3      H2              8.6954388564       16.7165152406      -40.8479469851  TIP3      4305            0.0000000000
     26384      4452  TIP3      OH2            14.7797880993       19.4606974058      -36.1393932273  TIP3      4306            0.0000000000
     26385      4452  TIP3      H1             14.4669707300       20.3903240439      -36.0723000966  TIP3      4306            0.0000000000
     26386      4452  TIP3      H2             14.3268143626       19.0268637627      -35.4080875293  TIP3      4306            0.0000000000
     26387      4453  TIP3      OH2            15.6921920541       23.7841639806      -29.0980946188  TIP3      4307            0.0000000000
     26388      4453  TIP3      H1             16.3527125065       24.2959168029      -29.5927285364  TIP3      4307            0.0000000000
     26389      4453  TIP3      H2             16.2560178645       23.2855802985      -28.4672655353  TIP3      4307            0.0000000000
     26390      4454  TIP3      OH2            13.8112549297       24.4741173670      -36.8711614273  TIP3      4308            0.0000000000
     26391      4454  TIP3      H1             12.8915006264       24.5207648202      -36.5321124017  TIP3      4308            0.0000000000
     26392      4454  TIP3      H2             14.1689083594       25.3002528744      -36.4854615617  TIP3      4308            0.0000000000
     26393      4455  TIP3      OH2            18.7612861707       19.5792884231      -30.0880347621  TIP3      4309            0.0000000000
     26394      4455  TIP3      H1             18.5274455395       19.2778822930      -29.1844451974  TIP3      4309            0.0000000000
     26395      4455  TIP3      H2             19.3877260862       18.8926424251      -30.3716710480  TIP3      4309            0.0000000000
     26396      4456  TIP3      OH2            21.3947420885       20.8599140222      -40.7537899080  TIP3      4310            0.0000000000
     26397      4456  TIP3      H1             21.5987106248       20.3533305012      -39.9374758547  TIP3      4310            0.0000000000
     26398      4456  TIP3      H2             20.4476703815       20.6266721978      -40.8243886057  TIP3      4310            0.0000000000
     26399      4457  TIP3      OH2            22.1187997494       24.4236653836      -27.6599012689  TIP3      4311            0.0000000000
     26400      4457  TIP3      H1             21.4916180805       23.7559738765      -27.9772923580  TIP3      4311            0.0000000000
     26401      4457  TIP3      H2             22.1923777249       25.0474232251      -28.4194599264  TIP3      4311            0.0000000000
     26402      4458  TIP3      OH2            26.0642787177       25.1027850443      -40.9491153629  TIP3      4312            0.0000000000
     26403      4458  TIP3      H1             26.7307140713       25.7669577568      -41.2066735948  TIP3      4312            0.0000000000
     26404      4458  TIP3      H2             25.2875297908       25.6494009020      -40.7426410227  TIP3      4312            0.0000000000
     26405      4459  TIP3      OH2            10.0629507739       11.1781591655      -28.0674303695  TIP3      4313            0.0000000000
     26406      4459  TIP3      H1              9.2705777174       11.6559786257      -27.8031237716  TIP3      4313            0.0000000000
     26407      4459  TIP3      H2              9.8334389564       10.2629339352      -27.8256254799  TIP3      4313            0.0000000000
     26408      4460  TIP3      OH2            22.1644752204       19.5440420437      -38.5788335518  TIP3      4314            0.0000000000
     26409      4460  TIP3      H1             21.9410486763       18.7277908188      -38.0786857596  TIP3      4314            0.0000000000
     26410      4460  TIP3      H2             23.1351184909       19.4782096988      -38.6191289683  TIP3      4314            0.0000000000
     26411      4461  TIP3      OH2             9.7579309890       23.2849927860      -29.8377474677  TIP3      4315            0.0000000000
     26412      4461  TIP3      H1             10.4481466266       22.6114690878      -29.8254074376  TIP3      4315            0.0000000000
     26413      4461  TIP3      H2              9.8863181740       23.6827266096      -28.9575341088  TIP3      4315            0.0000000000
     26414      4462  TIP3      OH2            14.1545345273       21.3517055822      -39.9370232577  TIP3      4316            0.0000000000
     26415      4462  TIP3      H1             14.8638021514       20.7204897154      -39.7282970202  TIP3      4316            0.0000000000
     26416      4462  TIP3      H2             14.5610609118       22.2110269379      -39.6950634949  TIP3      4316            0.0000000000
     26417      4463  TIP3      OH2            10.7567156807       18.4351021942      -39.3389870324  TIP3      4317            0.0000000000
     26418      4463  TIP3      H1             10.2060551969       19.0326294458      -38.7983074387  TIP3      4317            0.0000000000
     26419      4463  TIP3      H2             11.3943272301       19.0393073181      -39.7736964520  TIP3      4317            0.0000000000
     26420      4464  TIP3      OH2            18.6319278632       11.3336254299      -29.0555983539  TIP3      4318            0.0000000000
     26421      4464  TIP3      H1             19.4586046134       11.6335240673      -28.6375562136  TIP3      4318            0.0000000000
     26422      4464  TIP3      H2             18.4587624049       10.4663114161      -28.6527383752  TIP3      4318            0.0000000000
     26423      4465  TIP3      OH2            19.4258389769       10.5306181252      -38.2797269633  TIP3      4319            0.0000000000
     26424      4465  TIP3      H1             19.8807706679       11.0451414209      -38.9790134636  TIP3      4319            0.0000000000
     26425      4465  TIP3      H2             19.9356870015       10.7897498595      -37.4854008902  TIP3      4319            0.0000000000
     26426      4466  TIP3      OH2            17.3556374045       23.0174067826      -39.5125316633  TIP3      4320            0.0000000000
     26427      4466  TIP3      H1             16.4750872233       23.4049065507      -39.3423532751  TIP3      4320            0.0000000000
     26428      4466  TIP3      H2             17.7280089991       23.5730886303      -40.2285430553  TIP3      4320            0.0000000000
     26429      4467  TIP3      OH2            16.8702207751       12.8024696954      -37.3526960705  TIP3      4321            0.0000000000
     26430      4467  TIP3      H1             17.5504495375       13.4823323308      -37.1867261801  TIP3      4321            0.0000000000
     26431      4467  TIP3      H2             16.7680463740       12.3497261044      -36.4885594799  TIP3      4321            0.0000000000
     26432      4468  TIP3      OH2            17.3655002246       13.8132558064      -28.0577244933  TIP3      4322            0.0000000000
     26433      4468  TIP3      H1             17.3526816100       14.2008299626      -27.1540708542  TIP3      4322            0.0000000000
     26434      4468  TIP3      H2             17.3836585730       12.8582483304      -27.8780459073  TIP3      4322            0.0000000000
     26435      4469  TIP3      OH2            17.4126954213        9.4730036958      -36.7411014060  TIP3      4323            0.0000000000
     26436      4469  TIP3      H1             17.0686983867       10.1930996996      -36.1666971405  TIP3      4323            0.0000000000
     26437      4469  TIP3      H2             18.1611185172        9.9346863924      -37.1904559185  TIP3      4323            0.0000000000
     26438      4470  TIP3      OH2            14.8011791655       23.9672277732      -39.3199201955  TIP3      4324            0.0000000000
     26439      4470  TIP3      H1             14.7485442625       24.8244621434      -39.7931351644  TIP3      4324            0.0000000000
     26440      4470  TIP3      H2             14.2663869126       24.1948467297      -38.5291652668  TIP3      4324            0.0000000000
     26441      4471  TIP3      OH2            13.0492157641       10.6531824947      -39.5247470006  TIP3      4325            0.0000000000
     26442      4471  TIP3      H1             12.9726308062       11.4723982904      -39.0073912200  TIP3      4325            0.0000000000
     26443      4471  TIP3      H2             13.9232880191       10.3332643838      -39.2283959569  TIP3      4325            0.0000000000
     26444      4472  TIP3      OH2            23.4209684075       11.3070637374      -26.8898425708  TIP3      4326            0.0000000000
     26445      4472  TIP3      H1             22.4845717075       11.2364606454      -27.1630860634  TIP3      4326            0.0000000000
     26446      4472  TIP3      H2             23.8358179085       11.4949931193      -27.7532384329  TIP3      4326            0.0000000000
     26447      4473  TIP3      OH2            22.2832048130       15.5596248915      -33.2150446518  TIP3      4327            0.0000000000
     26448      4473  TIP3      H1             21.4689148646       15.0313785884      -33.3525105604  TIP3      4327            0.0000000000
     26449      4473  TIP3      H2             22.9024667993       14.8937076911      -32.8324374469  TIP3      4327            0.0000000000
     26450      4474  TIP3      OH2            11.5371884385       21.3123852036      -40.8605905983  TIP3      4328            0.0000000000
     26451      4474  TIP3      H1             12.3610854940       21.5205777476      -40.3679871771  TIP3      4328            0.0000000000
     26452      4474  TIP3      H2             11.9196775556       20.6785667238      -41.4941928499  TIP3      4328            0.0000000000
     26453      4475  TIP3      OH2             9.6449836319       14.1012371664      -41.6342081646  TIP3      4329            0.0000000000
     26454      4475  TIP3      H1              9.9164062060       15.0331105173      -41.5374710766  TIP3      4329            0.0000000000
     26455      4475  TIP3      H2              8.9145789189       14.1767477158      -42.2738627638  TIP3      4329            0.0000000000
     26456      4476  TIP3      OH2            22.8859432058       24.5342757664      -32.0993485194  TIP3      4330            0.0000000000
     26457      4476  TIP3      H1             22.7346110115       25.3551343018      -32.6208368303  TIP3      4330            0.0000000000
     26458      4476  TIP3      H2             23.8543443873       24.6157218091      -31.9530752465  TIP3      4330            0.0000000000
     26459      4477  TIP3      OH2            10.5152099915        8.5644702511      -32.7469405460  TIP3      4331            0.0000000000
     26460      4477  TIP3      H1             10.4576331377        8.4933075129      -33.7263467050  TIP3      4331            0.0000000000
     26461      4477  TIP3      H2             10.2853404484        7.6251646107      -32.5457670059  TIP3      4331            0.0000000000
     26462      4478  TIP3      OH2             9.0963540068       22.2943143490      -36.7707394073  TIP3      4332            0.0000000000
     26463      4478  TIP3      H1              8.3270956544       22.7989622897      -36.4830676460  TIP3      4332            0.0000000000
     26464      4478  TIP3      H2              9.3834477862       22.8696732276      -37.5122015946  TIP3      4332            0.0000000000
     26465      4479  TIP3      OH2             8.6729580989       25.3891641183      -25.2577425586  TIP3      4333            0.0000000000
     26466      4479  TIP3      H1              9.2457357760       25.1256268321      -24.5115566119  TIP3      4333            0.0000000000
     26467      4479  TIP3      H2              8.1580619011       24.5860180249      -25.4346474395  TIP3      4333            0.0000000000
     26468      4480  TIP3      OH2            13.0407522544       24.1326651500      -24.0843016315  TIP3      4334            0.0000000000
     26469      4480  TIP3      H1             13.9855214154       23.8893134468      -24.0635597342  TIP3      4334            0.0000000000
     26470      4480  TIP3      H2             12.7936979872       23.6724174484      -24.9135628016  TIP3      4334            0.0000000000
     26471      4481  TIP3      OH2            18.3133510519       24.2400656672      -41.7469664811  TIP3      4335            0.0000000000
     26472      4481  TIP3      H1             17.6050901730       23.7747362328      -42.2545507810  TIP3      4335            0.0000000000
     26473      4481  TIP3      H2             19.0800190680       24.0448047692      -42.3027878681  TIP3      4335            0.0000000000
     26474      4482  TIP3      OH2            20.0917360056       22.6446212151      -25.1049303389  TIP3      4336            0.0000000000
     26475      4482  TIP3      H1             19.5897147684       21.8617976357      -24.7568682933  TIP3      4336            0.0000000000
     26476      4482  TIP3      H2             20.9025194362       22.5852368091      -24.5801602784  TIP3      4336            0.0000000000
     26477      4483  TIP3      OH2            22.4831226054       23.2700055828      -42.2868226608  TIP3      4337            0.0000000000
     26478      4483  TIP3      H1             22.0291138241       22.5735799118      -41.7740969588  TIP3      4337            0.0000000000
     26479      4483  TIP3      H2             23.3906915156       22.9485606821      -42.1221869386  TIP3      4337            0.0000000000
     26480      4484  TIP3      OH2             8.3670187061       18.9678595526      -24.4877167529  TIP3      4338            0.0000000000
     26481      4484  TIP3      H1              8.0978675896       18.0287202244      -24.5440892482  TIP3      4338            0.0000000000
     26482      4484  TIP3      H2              7.9508577835       19.3239926713      -25.3054785552  TIP3      4338            0.0000000000
     26483      4485  TIP3      OH2            13.1159083005       18.9794048051      -41.8959380139  TIP3      4339            0.0000000000
     26484      4485  TIP3      H1             13.9365989759       18.9225418132      -41.3576120146  TIP3      4339            0.0000000000
     26485      4485  TIP3      H2             13.5618207978       19.0279021361      -42.7610114872  TIP3      4339            0.0000000000
     26486      4486  TIP3      OH2            15.4314235719       18.8830419705      -25.4916792242  TIP3      4340            0.0000000000
     26487      4486  TIP3      H1             15.0194091524       19.4829554412      -26.1573740663  TIP3      4340            0.0000000000
     26488      4486  TIP3      H2             15.2887579776       17.9738137209      -25.8528789588  TIP3      4340            0.0000000000
     26489      4487  TIP3      OH2            21.0769824531       18.5698325866      -27.7134045653  TIP3      4341            0.0000000000
     26490      4487  TIP3      H1             21.9985549826       18.9062096970      -27.6104185282  TIP3      4341            0.0000000000
     26491      4487  TIP3      H2             20.6538260277       19.4472011755      -27.7039143957  TIP3      4341            0.0000000000
     26492      4488  TIP3      OH2             9.3173285460       15.8770569282      -24.5432103794  TIP3      4342            0.0000000000
     26493      4488  TIP3      H1              9.4031482719       15.0609258758      -24.0030106153  TIP3      4342            0.0000000000
     26494      4488  TIP3      H2             10.2234931522       16.2046649234      -24.5399321912  TIP3      4342            0.0000000000
     26495      4489  TIP3      OH2            14.2706217361       17.5533200356      -39.7812010642  TIP3      4343            0.0000000000
     26496      4489  TIP3      H1             13.5228504365       17.0258418972      -39.4385332903  TIP3      4343            0.0000000000
     26497      4489  TIP3      H2             14.6687294169       16.9434639639      -40.4179366369  TIP3      4343            0.0000000000
     26498      4490  TIP3      OH2            13.1431347365       14.9974396474      -28.2371650367  TIP3      4344            0.0000000000
     26499      4490  TIP3      H1             12.5793874129       15.7327696523      -27.8963965767  TIP3      4344            0.0000000000
     26500      4490  TIP3      H2             13.9060531584       15.4925453553      -28.6178064980  TIP3      4344            0.0000000000
     26501      4491  TIP3      OH2            15.4915118555       15.7188351102      -41.7970125613  TIP3      4345            0.0000000000
     26502      4491  TIP3      H1             15.7941956985       16.6095204787      -42.0882037896  TIP3      4345            0.0000000000
     26503      4491  TIP3      H2             16.3446188421       15.4386031116      -41.3850707914  TIP3      4345            0.0000000000
     26504      4492  TIP3      OH2            18.8100908235       17.7645421710      -24.3181415668  TIP3      4346            0.0000000000
     26505      4492  TIP3      H1             19.5074032871       17.3415791309      -24.8542780332  TIP3      4346            0.0000000000
     26506      4492  TIP3      H2             18.6702494242       17.0779405768      -23.6502469483  TIP3      4346            0.0000000000
     26507      4493  TIP3      OH2            24.3994362126       18.3856225456       42.3908744513  TIP3      4347            0.0000000000
     26508      4493  TIP3      H1             24.2350811278       18.7568113871       41.5108985067  TIP3      4347            0.0000000000
     26509      4493  TIP3      H2             24.8290231098       19.1272183166       42.8387233716  TIP3      4347            0.0000000000
     26510      4494  TIP3      OH2            13.9038881665       12.8058182564      -26.8930763179  TIP3      4348            0.0000000000
     26511      4494  TIP3      H1             13.9819970997       12.0453578577      -27.5119498418  TIP3      4348            0.0000000000
     26512      4494  TIP3      H2             13.8507945033       13.5766940095      -27.5076605034  TIP3      4348            0.0000000000
     26513      4495  TIP3      OH2            14.2839346501       10.8900462540      -28.7354117316  TIP3      4349            0.0000000000
     26514      4495  TIP3      H1             14.7879374439       11.3783449768      -29.4347197120  TIP3      4349            0.0000000000
     26515      4495  TIP3      H2             13.4412138328       10.7647029608      -29.2175685071  TIP3      4349            0.0000000000
     26516      4496  TIP3      OH2            15.4015024517       16.3934967954      -29.0649471121  TIP3      4350            0.0000000000
     26517      4496  TIP3      H1             16.3292929740       16.6568170452      -29.1701625586  TIP3      4350            0.0000000000
     26518      4496  TIP3      H2             14.9214212961       17.2054994882      -29.3589532359  TIP3      4350            0.0000000000
     26519      4497  TIP3      OH2            19.4238370216       14.5659630057      -23.8185468186  TIP3      4351            0.0000000000
     26520      4497  TIP3      H1             19.3740818839       13.6419387223      -23.4847209168  TIP3      4351            0.0000000000
     26521      4497  TIP3      H2             20.3659018579       14.7494725763      -23.6786756907  TIP3      4351            0.0000000000
     26522      4498  TIP3      OH2            21.3022699462       17.1569642302      -25.3408924535  TIP3      4352            0.0000000000
     26523      4498  TIP3      H1             21.1026125741       17.6650457232      -26.1598265472  TIP3      4352            0.0000000000
     26524      4498  TIP3      H2             22.2463332320       16.9504936917      -25.4966850157  TIP3      4352            0.0000000000
     26525      4499  TIP3      OH2            12.3489623312       13.2356093930      -24.8050214644  TIP3      4353            0.0000000000
     26526      4499  TIP3      H1             11.4383481883       12.9285616255      -25.0032455505  TIP3      4353            0.0000000000
     26527      4499  TIP3      H2             12.8591262972       12.9858563499      -25.6112809651  TIP3      4353            0.0000000000
     26528      4500  TIP3      OH2            15.2099154177        8.3023474310      -29.0255660087  TIP3      4354            0.0000000000
     26529      4500  TIP3      H1             14.8217797043        9.2003530109      -28.9012731684  TIP3      4354            0.0000000000
     26530      4500  TIP3      H2             14.4422285209        7.8128971906      -29.3384145671  TIP3      4354            0.0000000000
     26531      4501  TIP3      OH2            15.9594155823       12.7047277434      -25.1354705206  TIP3      4355            0.0000000000
     26532      4501  TIP3      H1             15.6307979998       12.3839114680      -24.2786101703  TIP3      4355            0.0000000000
     26533      4501  TIP3      H2             15.1912068283       12.4968494976      -25.7132265692  TIP3      4355            0.0000000000
     26534      4502  TIP3      OH2            18.8097529216       11.7166428113      -25.7404140298  TIP3      4356            0.0000000000
     26535      4502  TIP3      H1             17.8574811535       11.6577772432      -25.5173481460  TIP3      4356            0.0000000000
     26536      4502  TIP3      H2             19.2153072009       11.2846047728      -24.9755669163  TIP3      4356            0.0000000000
     26537      4503  TIP3      OH2            20.9560327072       10.2872247080      -23.9491874693  TIP3      4357            0.0000000000
     26538      4503  TIP3      H1             20.5906006499        9.3762498391      -24.0228345602  TIP3      4357            0.0000000000
     26539      4503  TIP3      H2             20.4022444870       10.6880967437      -23.2508322274  TIP3      4357            0.0000000000
     26540      4504  TIP3      OH2             9.9915800257       11.6445509310      -24.6070954826  TIP3      4358            0.0000000000
     26541      4504  TIP3      H1             10.2078934839       10.8828637856      -25.1674396845  TIP3      4358            0.0000000000
     26542      4504  TIP3      H2              9.9304528652       11.2721511817      -23.7034250499  TIP3      4358            0.0000000000
     26543      4505  TIP3      OH2            14.6844019766        7.8863182995      -26.2004496959  TIP3      4359            0.0000000000
     26544      4505  TIP3      H1             15.4576834321        7.3397414839      -25.9383240311  TIP3      4359            0.0000000000
     26545      4505  TIP3      H2             14.8079630061        7.8651398515      -27.1664614962  TIP3      4359            0.0000000000
     26546      4506  TIP3      OH2            15.1306824370        9.8477041656      -24.4126882577  TIP3      4360            0.0000000000
     26547      4506  TIP3      H1             14.7908611111        9.1727502753      -25.0387188778  TIP3      4360            0.0000000000
     26548      4506  TIP3      H2             14.3728715297       10.1381475726      -23.8699836518  TIP3      4360            0.0000000000
     26549      4507  TIP3      OH2            15.0087691638       26.5433688006      -40.3070539929  TIP3      4361            0.0000000000
     26550      4507  TIP3      H1             15.9732362975       26.6496883542      -40.2274943575  TIP3      4361            0.0000000000
     26551      4507  TIP3      H2             14.8415400656       27.0142976253      -41.1235750786  TIP3      4361            0.0000000000
     26552      4508  TIP3      OH2             8.5335292214       20.7142853890      -41.2831753496  TIP3      4362            0.0000000000
     26553      4508  TIP3      H1              9.5055489168       20.6938425372      -41.2383633195  TIP3      4362            0.0000000000
     26554      4508  TIP3      H2              8.3971233279       20.5239044956      -42.2296349853  TIP3      4362            0.0000000000
     26555      4509  TIP3      OH2             7.5229471556       25.6910884187      -36.2379406621  TIP3      4363            0.0000000000
     26556      4509  TIP3      H1              6.7037389458       25.2454452547      -36.5486254421  TIP3      4363            0.0000000000
     26557      4509  TIP3      H2              7.8361834639       25.1260278997      -35.5006811274  TIP3      4363            0.0000000000
     26558      4510  TIP3      OH2             8.5030851185       24.2027715859      -34.0727289523  TIP3      4364            0.0000000000
     26559      4510  TIP3      H1              8.1611968363       23.3323858166      -33.8048942335  TIP3      4364            0.0000000000
     26560      4510  TIP3      H2              8.9114590020       24.5210297516      -33.2458418421  TIP3      4364            0.0000000000
     26561      4511  TIP3      OH2            25.4619207036       24.6196690242      -31.0714522405  TIP3      4365            0.0000000000
     26562      4511  TIP3      H1             25.6556205501       24.8620521541      -30.1504917456  TIP3      4365            0.0000000000
     26563      4511  TIP3      H2             26.1438091335       25.0856072902      -31.5770143286  TIP3      4365            0.0000000000
     26564      4512  TIP3      OH2            25.3889752073       24.6640631112      -28.2971736567  TIP3      4366            0.0000000000
     26565      4512  TIP3      H1             24.9485020973       23.9484965334      -28.8040064195  TIP3      4366            0.0000000000
     26566      4512  TIP3      H2             25.8698790103       24.1274988452      -27.6403499808  TIP3      4366            0.0000000000
     26567      4513  TIP3      OH2            24.0762038408       20.5483004182      -23.4916102855  TIP3      4367            0.0000000000
     26568      4513  TIP3      H1             24.0104907710       19.5688847456      -23.5386803601  TIP3      4367            0.0000000000
     26569      4513  TIP3      H2             24.0811681247       20.7602854305      -24.4313766154  TIP3      4367            0.0000000000
     26570      4514  TIP3      OH2            24.7976737012       18.8618324556      -38.6538994264  TIP3      4368            0.0000000000
     26571      4514  TIP3      H1             25.6039994861       19.3209473285      -38.3562767839  TIP3      4368            0.0000000000
     26572      4514  TIP3      H2             24.7262396840       18.1704456417      -37.9559263343  TIP3      4368            0.0000000000
     26573      4515  TIP3      OH2            25.5959938753       16.9729458409      -36.8318947243  TIP3      4369            0.0000000000
     26574      4515  TIP3      H1             24.8697084271       16.7858103017      -36.1863505044  TIP3      4369            0.0000000000
     26575      4515  TIP3      H2             26.2551809632       17.3670229923      -36.2407065924  TIP3      4369            0.0000000000
     26576      4516  TIP3      OH2            25.6383048055       19.6044925472      -31.4368588562  TIP3      4370            0.0000000000
     26577      4516  TIP3      H1             26.2443177109       18.9675216157      -31.8686234371  TIP3      4370            0.0000000000
     26578      4516  TIP3      H2             26.0582578978       20.4801475003      -31.6163091685  TIP3      4370            0.0000000000
     26579      4517  TIP3      OH2            24.0155775247       22.3930738169      -29.4712852586  TIP3      4371            0.0000000000
     26580      4517  TIP3      H1             23.2594478883       22.9953856445      -29.4465760637  TIP3      4371            0.0000000000
     26581      4517  TIP3      H2             23.9257442026       22.0358220297      -30.3823331907  TIP3      4371            0.0000000000
     26582      4518  TIP3      OH2            25.6692760295       16.6902052247      -40.1240383097  TIP3      4372            0.0000000000
     26583      4518  TIP3      H1             24.8595508811       16.6236099067      -40.6519661693  TIP3      4372            0.0000000000
     26584      4518  TIP3      H2             25.4062965089       17.4306057418      -39.5386217369  TIP3      4372            0.0000000000
     26585      4519  TIP3      OH2            23.5786900631       13.9424685238      -40.9687995253  TIP3      4373            0.0000000000
     26586      4519  TIP3      H1             24.1283792084       14.3886191533      -41.6357590339  TIP3      4373            0.0000000000
     26587      4519  TIP3      H2             23.5825957792       13.0355945556      -41.3372231778  TIP3      4373            0.0000000000
     26588      4520  TIP3      OH2            23.5171731754       16.2632657081      -35.4380818209  TIP3      4374            0.0000000000
     26589      4520  TIP3      H1             23.5428055664       15.3321852562      -35.7104990962  TIP3      4374            0.0000000000
     26590      4520  TIP3      H2             23.1264181420       16.1631068622      -34.5350436760  TIP3      4374            0.0000000000
     26591      4521  TIP3      OH2             8.3045887794       17.5562685571      -31.7150114710  TIP3      4375            0.0000000000
     26592      4521  TIP3      H1              8.3194721687       17.1987944942      -32.6345329795  TIP3      4375            0.0000000000
     26593      4521  TIP3      H2              9.1991821953       17.2689828972      -31.3973419593  TIP3      4375            0.0000000000
     26594      4522  TIP3      OH2            24.1035143288       17.2489538883      -26.2785832656  TIP3      4376            0.0000000000
     26595      4522  TIP3      H1             24.7171258676       16.4886029120      -26.3043825560  TIP3      4376            0.0000000000
     26596      4522  TIP3      H2             24.7059874604       18.0035242507      -26.4500854341  TIP3      4376            0.0000000000
     26597      4523  TIP3      OH2            25.6119207987       15.1537819335      -25.6183499730  TIP3      4377            0.0000000000
     26598      4523  TIP3      H1             24.7276512749       14.7852274408      -25.8790239142  TIP3      4377            0.0000000000
     26599      4523  TIP3      H2             26.1338990734       14.3307291853      -25.6898426885  TIP3      4377            0.0000000000
     26600      4524  TIP3      OH2            23.3950666867       11.6492474904      -42.4670510495  TIP3      4378            0.0000000000
     26601      4524  TIP3      H1             23.8975480598       10.9601545725      -41.9691858181  TIP3      4378            0.0000000000
     26602      4524  TIP3      H2             22.4569444534       11.4512297008      -42.2897823644  TIP3      4378            0.0000000000
     26603      4525  TIP3      OH2            22.8474529325       13.3646253565      -37.2569169498  TIP3      4379            0.0000000000
     26604      4525  TIP3      H1             22.9712178052       12.4095786548      -37.0542326565  TIP3      4379            0.0000000000
     26605      4525  TIP3      H2             23.6200928346       13.4803660241      -37.8228426349  TIP3      4379            0.0000000000
     26606      4526  TIP3      OH2            23.9304925170       13.7806239416      -32.0450425534  TIP3      4380            0.0000000000
     26607      4526  TIP3      H1             24.8540419175       14.0226033762      -31.7876766336  TIP3      4380            0.0000000000
     26608      4526  TIP3      H2             23.5081172703       13.7329405836      -31.1686279740  TIP3      4380            0.0000000000
     26609      4527  TIP3      OH2            23.9115655786       14.2028239990      -29.2109948284  TIP3      4381            0.0000000000
     26610      4527  TIP3      H1             23.1416726773       14.3894930174      -28.6501869079  TIP3      4381            0.0000000000
     26611      4527  TIP3      H2             24.2898009328       15.1088577872      -29.3458129934  TIP3      4381            0.0000000000
     26612      4528  TIP3      OH2             7.5533522241       12.9251250766      -24.9775147992  TIP3      4382            0.0000000000
     26613      4528  TIP3      H1              8.4378915680       12.6022680669      -24.6943356939  TIP3      4382            0.0000000000
     26614      4528  TIP3      H2              7.0871178989       12.0787947059      -25.1549419555  TIP3      4382            0.0000000000
     26615      4529  TIP3      OH2            26.7141569033        8.6097639941      -23.5347903565  TIP3      4383            0.0000000000
     26616      4529  TIP3      H1             27.0752234889        7.9367448603      -24.1609548076  TIP3      4383            0.0000000000
     26617      4529  TIP3      H2             26.3040224609        9.2106366814      -24.2031714159  TIP3      4383            0.0000000000
     26618      4530  TIP3      OH2            23.3037722914       10.5163671297      -37.0406770565  TIP3      4384            0.0000000000
     26619      4530  TIP3      H1             23.6438765918        9.9736958911      -36.3036864629  TIP3      4384            0.0000000000
     26620      4530  TIP3      H2             23.0036197817        9.8710299477      -37.7023135230  TIP3      4384            0.0000000000
     26621      4531  TIP3      OH2             9.3726628846       10.9364497014      -32.1850302962  TIP3      4385            0.0000000000
     26622      4531  TIP3      H1              9.6509462704        9.9972171867      -32.2958350307  TIP3      4385            0.0000000000
     26623      4531  TIP3      H2             10.1909969241       11.4420609263      -32.3614667983  TIP3      4385            0.0000000000
     26624      4532  TIP3      OH2             7.6957609036       13.9742269888      -31.3228707587  TIP3      4386            0.0000000000
     26625      4532  TIP3      H1              8.1303411849       13.2335394150      -31.7749909967  TIP3      4386            0.0000000000
     26626      4532  TIP3      H2              8.3121764067       14.6836137707      -31.5691995105  TIP3      4386            0.0000000000
     26627      4533  TIP3      OH2            25.4276230389        9.8575487959      -25.5340353951  TIP3      4387            0.0000000000
     26628      4533  TIP3      H1             24.6537568319       10.4377939068      -25.6789133929  TIP3      4387            0.0000000000
     26629      4533  TIP3      H2             25.3071756017        9.2801989401      -26.3222109202  TIP3      4387            0.0000000000
     26630      4534  TIP3      OH2            25.3024522250       10.3826823086      -40.9489989976  TIP3      4388            0.0000000000
     26631      4534  TIP3      H1             25.7124388419        9.5190845704      -41.1458625556  TIP3      4388            0.0000000000
     26632      4534  TIP3      H2             26.0979387943       10.9497439655      -40.9697170856  TIP3      4388            0.0000000000
     26633      4535  TIP3      OH2             7.7394952428        9.9777315586      -37.8778028992  TIP3      4389            0.0000000000
     26634      4535  TIP3      H1              6.7954233961       10.0117444341      -37.6908880101  TIP3      4389            0.0000000000
     26635      4535  TIP3      H2              7.8352983910       10.6350293038      -38.5940838734  TIP3      4389            0.0000000000
     26636      4536  TIP3      OH2            22.3849890036       25.3213799496      -35.8042806825  TIP3      4390            0.0000000000
     26637      4536  TIP3      H1             23.1530458991       25.1082658485      -36.3832121628  TIP3      4390            0.0000000000
     26638      4536  TIP3      H2             22.7156064571       26.0434944617      -35.2501341197  TIP3      4390            0.0000000000
     26639      4537  TIP3      OH2             7.6981951068        8.7924668362      -29.4568401239  TIP3      4391            0.0000000000
     26640      4537  TIP3      H1              7.2056331350        8.4899440571      -28.6737864917  TIP3      4391            0.0000000000
     26641      4537  TIP3      H2              7.1013698766        9.4370018901      -29.8697409642  TIP3      4391            0.0000000000
     26642      4538  TIP3      OH2            10.1706487405       21.7578396442      -25.3360738835  TIP3      4392            0.0000000000
     26643      4538  TIP3      H1              9.3799720449       21.4758647512      -25.8266731477  TIP3      4392            0.0000000000
     26644      4538  TIP3      H2              9.9623940994       22.6713010190      -25.1195839369  TIP3      4392            0.0000000000
     26645      4539  TIP3      OH2            12.9616909093       23.5501905357      -28.7428231884  TIP3      4393            0.0000000000
     26646      4539  TIP3      H1             12.9756876394       24.4934869963      -29.0328008739  TIP3      4393            0.0000000000
     26647      4539  TIP3      H2             13.9275755845       23.3665013614      -28.7905254299  TIP3      4393            0.0000000000
     26648      4540  TIP3      OH2            17.4054671708       24.4866736002      -26.3371104118  TIP3      4394            0.0000000000
     26649      4540  TIP3      H1             17.5010770174       24.3686879213      -25.3727876808  TIP3      4394            0.0000000000
     26650      4540  TIP3      H2             18.2620950536       24.8548608678      -26.6172811980  TIP3      4394            0.0000000000
     26651      4541  TIP3      OH2            19.3832262949       26.2363149312      -27.1495350724  TIP3      4395            0.0000000000
     26652      4541  TIP3      H1             20.1047256581       25.6310440033      -27.3650085265  TIP3      4395            0.0000000000
     26653      4541  TIP3      H2             19.6336749770       26.5245092517      -26.2453970449  TIP3      4395            0.0000000000
     26654      4542  TIP3      OH2            24.5429027760        8.2573343361      -27.4967564581  TIP3      4396            0.0000000000
     26655      4542  TIP3      H1             23.8337922905        8.6486163245      -28.0280705109  TIP3      4396            0.0000000000
     26656      4542  TIP3      H2             24.6279673165        7.3624907745      -27.8991785363  TIP3      4396            0.0000000000
     26657      4543  TIP3      OH2            10.3955914645       26.4387219283      -28.8747393931  TIP3      4397            0.0000000000
     26658      4543  TIP3      H1              9.6504791952       26.9441920727      -29.2643272770  TIP3      4397            0.0000000000
     26659      4543  TIP3      H2             10.3123386005       26.6966598828      -27.9393483534  TIP3      4397            0.0000000000
     26660      4544  TIP3      OH2            12.8522485802       25.9605797886      -29.9569252303  TIP3      4398            0.0000000000
     26661      4544  TIP3      H1             11.8905804797       26.0577777967      -29.7409710974  TIP3      4398            0.0000000000
     26662      4544  TIP3      H2             12.9104628637       26.4852719075      -30.7836746647  TIP3      4398            0.0000000000
     26663      4545  TIP3      OH2            17.5418561819       25.7590143678      -30.6911907472  TIP3      4399            0.0000000000
     26664      4545  TIP3      H1             16.8895407095       25.9447173927      -31.4003265940  TIP3      4399            0.0000000000
     26665      4545  TIP3      H2             17.5672561733       26.6093195674      -30.2041335295  TIP3      4399            0.0000000000
     26666      4546  TIP3      OH2            19.6325842058       24.3094561525      -29.6534581572  TIP3      4400            0.0000000000
     26667      4546  TIP3      H1             18.9082568642       24.8266112548      -30.0707257909  TIP3      4400            0.0000000000
     26668      4546  TIP3      H2             20.3611867391       24.9363693618      -29.7744297755  TIP3      4400            0.0000000000
     26669      4547  TIP3      OH2            22.4101657115       26.0501926869      -29.8487675152  TIP3      4401            0.0000000000
     26670      4547  TIP3      H1             22.3646500808       26.9736229097      -30.1847706312  TIP3      4401            0.0000000000
     26671      4547  TIP3      H2             22.6145874288       25.5750053537      -30.6777141871  TIP3      4401            0.0000000000
     26672      4548  TIP3      OH2            10.1276993802       24.9327095612      -31.9842367624  TIP3      4402            0.0000000000
     26673      4548  TIP3      H1              9.9255821560       24.2931353908      -31.2647946773  TIP3      4402            0.0000000000
     26674      4548  TIP3      H2             10.9570302510       24.5606256749      -32.3609521878  TIP3      4402            0.0000000000
     26675      4549  TIP3      OH2            12.2142140163       23.6551587631      -33.3278420805  TIP3      4403            0.0000000000
     26676      4549  TIP3      H1             12.0891836445       22.7277998562      -33.0284807051  TIP3      4403            0.0000000000
     26677      4549  TIP3      H2             13.1462914802       23.7764042830      -33.0473318768  TIP3      4403            0.0000000000
     26678      4550  TIP3      OH2            14.5932779127       23.8226996159      -32.1467842149  TIP3      4404            0.0000000000
     26679      4550  TIP3      H1             14.8878936914       22.8906476072      -32.1515331300  TIP3      4404            0.0000000000
     26680      4550  TIP3      H2             14.6138188900       24.0640747568      -31.2044334746  TIP3      4404            0.0000000000
     26681      4551  TIP3      OH2            17.1390587570        9.7666681337      -33.0672731949  TIP3      4405            0.0000000000
     26682      4551  TIP3      H1             16.4559497679        9.0503792791      -33.0062119327  TIP3      4405            0.0000000000
     26683      4551  TIP3      H2             17.8495158229        9.3764844321      -33.5923420355  TIP3      4405            0.0000000000
     26684      4552  TIP3      OH2            23.0374679925        8.1159412469      -33.2692832792  TIP3      4406            0.0000000000
     26685      4552  TIP3      H1             23.8512194192        8.4496764138      -33.7056565571  TIP3      4406            0.0000000000
     26686      4552  TIP3      H2             22.3326971493        8.4879484289      -33.8425272766  TIP3      4406            0.0000000000
     26687      4553  TIP3      OH2            24.9979809256        8.8289675518      -35.2635557386  TIP3      4407            0.0000000000
     26688      4553  TIP3      H1             25.6793003809        8.2514794940      -35.6665638899  TIP3      4407            0.0000000000
     26689      4553  TIP3      H2             25.4775289530        9.6875719771      -35.1438982514  TIP3      4407            0.0000000000
     26690      4554  TIP3      OH2            10.2801284508        8.1956705091      -35.4291785128  TIP3      4408            0.0000000000
     26691      4554  TIP3      H1              9.4169005239        7.9921843816      -35.8491111200  TIP3      4408            0.0000000000
     26692      4554  TIP3      H2             10.7624175463        7.3619380418      -35.6288249492  TIP3      4408            0.0000000000
     26693      4555  TIP3      OH2             8.8641158799        8.3150720573      -39.9111061839  TIP3      4409            0.0000000000
     26694      4555  TIP3      H1              9.5160552284        8.8844083276      -40.3768818798  TIP3      4409            0.0000000000
     26695      4555  TIP3      H2              8.5506044598        8.8979355748      -39.1910636108  TIP3      4409            0.0000000000
     26696      4556  TIP3      OH2            14.5738549684        8.0926163201      -35.5581441855  TIP3      4410            0.0000000000
     26697      4556  TIP3      H1             15.3813536533        8.3409414182      -36.0314492208  TIP3      4410            0.0000000000
     26698      4556  TIP3      H2             14.7644281864        8.3656157702      -34.6430109007  TIP3      4410            0.0000000000
     26699      4557  TIP3      OH2            20.2528430675        8.6148471378      -34.6604060888  TIP3      4411            0.0000000000
     26700      4557  TIP3      H1             19.9716116397        8.2885901788      -35.5253642551  TIP3      4411            0.0000000000
     26701      4557  TIP3      H2             20.0166079847        7.8511688123      -34.0951658542  TIP3      4411            0.0000000000
     26702      4558  TIP3      OH2            21.7084775347        8.6597968028      -38.7147581978  TIP3      4412            0.0000000000
     26703      4558  TIP3      H1             20.9955919874        8.7609783627      -39.3612959736  TIP3      4412            0.0000000000
     26704      4558  TIP3      H2             21.3521299776        7.9366657594      -38.1568236881  TIP3      4412            0.0000000000
     26705      4559  TIP3      OH2             8.9781813584       24.1358865255      -38.8000529436  TIP3      4413            0.0000000000
     26706      4559  TIP3      H1              8.1581715812       24.0626798071      -39.3111925457  TIP3      4413            0.0000000000
     26707      4559  TIP3      H2              9.1096446689       25.0936339919      -38.8704055607  TIP3      4413            0.0000000000
     26708      4560  TIP3      OH2            10.6678299484        9.6518439568      -41.2877158937  TIP3      4414            0.0000000000
     26709      4560  TIP3      H1             11.5240768770        9.1997099010      -41.2981397318  TIP3      4414            0.0000000000
     26710      4560  TIP3      H2             10.9310326141       10.5672750120      -41.1391339172  TIP3      4414            0.0000000000
     26711      4561  TIP3      OH2            15.9951952789       10.4975566134      -38.9326328987  TIP3      4415            0.0000000000
     26712      4561  TIP3      H1             16.5959478796       10.1135587815      -38.2725583471  TIP3      4415            0.0000000000
     26713      4561  TIP3      H2             15.9706684756       11.4147896750      -38.5963130905  TIP3      4415            0.0000000000
     26714      4562  TIP3      OH2            18.1515173766       26.6007373440      -40.4346000765  TIP3      4416            0.0000000000
     26715      4562  TIP3      H1             19.0665756334       26.8520771446      -40.6612005772  TIP3      4416            0.0000000000
     26716      4562  TIP3      H2             18.1472957015       25.7584442601      -40.9475723024  TIP3      4416            0.0000000000
     26717      4563  TIP3      OH2            24.3150809866       24.7214811602      -37.4599105393  TIP3      4417            0.0000000000
     26718      4563  TIP3      H1             24.4244735724       23.9921521874      -38.1179790798  TIP3      4417            0.0000000000
     26719      4563  TIP3      H2             24.2692526617       25.4970550114      -38.0650936609  TIP3      4417            0.0000000000
     26720      4564  TIP3      OH2             9.7030215483        8.6489650077      -26.6789155856  TIP3      4418            0.0000000000
     26721      4564  TIP3      H1              9.1493043478        8.0169552195      -26.1698042681  TIP3      4418            0.0000000000
     26722      4564  TIP3      H2             10.5131549207        8.6470647333      -26.1234590708  TIP3      4418            0.0000000000
     26723      4565  TIP3      OH2            11.5873696070        8.5846805982      -24.4806337428  TIP3      4419            0.0000000000
     26724      4565  TIP3      H1             12.4485865700        8.3905722267      -24.8831932070  TIP3      4419            0.0000000000
     26725      4565  TIP3      H2             11.3955955505        7.7377074445      -24.0348475604  TIP3      4419            0.0000000000
     26726      4566  TIP3      OH2            10.0961205174       25.1317738233      -41.5096779123  TIP3      4420            0.0000000000
     26727      4566  TIP3      H1             10.0196996327       25.9713368332      -41.0030572528  TIP3      4420            0.0000000000
     26728      4566  TIP3      H2              9.9775200934       24.4846307369      -40.8082949848  TIP3      4420            0.0000000000
     26729      4567  TIP3      OH2            20.6474655891        7.5886031830      -24.0131301477  TIP3      4421            0.0000000000
     26730      4567  TIP3      H1             20.7821545761        7.0769029479      -23.2088481121  TIP3      4421            0.0000000000
     26731      4567  TIP3      H2             21.4937812062        7.4223185871      -24.4904325541  TIP3      4421            0.0000000000
     26732      4568  TIP3      OH2            23.6310948216       23.4945127605      -25.4223986766  TIP3      4422            0.0000000000
     26733      4568  TIP3      H1             22.9798555563       23.7289028896      -26.1094007498  TIP3      4422            0.0000000000
     26734      4568  TIP3      H2             23.5534786619       24.2863367639      -24.8681815112  TIP3      4422            0.0000000000
     26735      4569  TIP3      OH2            29.0778165018       16.7412311903      -30.0516324128  TIP3      4423            0.0000000000
     26736      4569  TIP3      H1             29.3673909397       15.8767584529      -29.7012565458  TIP3      4423            0.0000000000
     26737      4569  TIP3      H2             29.8970238654       17.0754762114      -30.4797561429  TIP3      4423            0.0000000000
     26738      4570  TIP3      OH2            26.7210594730       14.2907856507      -36.6291900022  TIP3      4424            0.0000000000
     26739      4570  TIP3      H1             26.5329093054       15.2399652153      -36.5623359370  TIP3      4424            0.0000000000
     26740      4570  TIP3      H2             26.0515450460       14.0223923225      -37.2795355006  TIP3      4424            0.0000000000
     26741      4571  TIP3      OH2            27.9919270456       16.9148549236      -34.4788745320  TIP3      4425            0.0000000000
     26742      4571  TIP3      H1             27.8640232944       15.9727418865      -34.2470070856  TIP3      4425            0.0000000000
     26743      4571  TIP3      H2             28.9811192106       16.9391723109      -34.4870829899  TIP3      4425            0.0000000000
     26744      4572  TIP3      OH2            28.1756095763       14.4309528383      -33.4259110551  TIP3      4426            0.0000000000
     26745      4572  TIP3      H1             28.8598807669       14.2559076301      -32.7356325082  TIP3      4426            0.0000000000
     26746      4572  TIP3      H2             28.6204445459       14.0596164892      -34.2191648131  TIP3      4426            0.0000000000
     26747      4573  TIP3      OH2            27.8046007386       20.2480091338      -38.0261789219  TIP3      4427            0.0000000000
     26748      4573  TIP3      H1             27.5533069363       20.6835528130      -38.8549213461  TIP3      4427            0.0000000000
     26749      4573  TIP3      H2             27.5871620419       20.9393662437      -37.3736120209  TIP3      4427            0.0000000000
     26750      4574  TIP3      OH2            27.2430747358       19.4684070528      -28.5670833789  TIP3      4428            0.0000000000
     26751      4574  TIP3      H1             26.8602867735       19.3401279686      -29.4500000475  TIP3      4428            0.0000000000
     26752      4574  TIP3      H2             27.3636607194       18.5415447754      -28.2764625666  TIP3      4428            0.0000000000
     26753      4575  TIP3      OH2            26.6303116206       22.0423003581      -31.8458975311  TIP3      4429            0.0000000000
     26754      4575  TIP3      H1             27.4103830055       22.2543213705      -31.3046485687  TIP3      4429            0.0000000000
     26755      4575  TIP3      H2             26.0892480181       22.8308679697      -31.6910902389  TIP3      4429            0.0000000000
     26756      4576  TIP3      OH2            29.6783685262       22.0010190513      -27.6642106628  TIP3      4430            0.0000000000
     26757      4576  TIP3      H1             29.9174872556       21.2447149846      -27.0815269866  TIP3      4430            0.0000000000
     26758      4576  TIP3      H2             28.9451375428       21.6017139027      -28.1588462897  TIP3      4430            0.0000000000
     26759      4577  TIP3      OH2            29.7295659321       13.9346444572      -28.5569183673  TIP3      4431            0.0000000000
     26760      4577  TIP3      H1             29.9740008651       13.2887728416      -27.8608466643  TIP3      4431            0.0000000000
     26761      4577  TIP3      H2             29.3492633880       13.3507734971      -29.2213927861  TIP3      4431            0.0000000000
     26762      4578  TIP3      OH2            26.2045551426       11.2689606562      -35.0246138672  TIP3      4432            0.0000000000
     26763      4578  TIP3      H1             26.7821744968       11.4121886031      -34.2447509762  TIP3      4432            0.0000000000
     26764      4578  TIP3      H2             26.6944554776       11.7342130356      -35.7064646769  TIP3      4432            0.0000000000
     26765      4579  TIP3      OH2            27.4222441696       11.7296529763      -39.9228661337  TIP3      4433            0.0000000000
     26766      4579  TIP3      H1             28.1448489428       12.0832968795      -40.4686850492  TIP3      4433            0.0000000000
     26767      4579  TIP3      H2             26.9016985565       12.5273586280      -39.7253130154  TIP3      4433            0.0000000000
     26768      4580  TIP3      OH2            28.9691136558       13.4806713391      -35.7190991199  TIP3      4434            0.0000000000
     26769      4580  TIP3      H1             28.0393089865       13.6004449407      -36.0362252795  TIP3      4434            0.0000000000
     26770      4580  TIP3      H2             29.0945488014       12.5248611623      -35.5438814458  TIP3      4434            0.0000000000
     26771      4581  TIP3      OH2            29.6832326880       19.5126823633      -26.3557369410  TIP3      4435            0.0000000000
     26772      4581  TIP3      H1             30.0312949760       19.1768097900      -27.2052608370  TIP3      4435            0.0000000000
     26773      4581  TIP3      H2             29.4858000356       18.6824888339      -25.8907612572  TIP3      4435            0.0000000000
     26774      4582  TIP3      OH2            26.8894574560       16.7476705236      -27.5048220711  TIP3      4436            0.0000000000
     26775      4582  TIP3      H1             26.5717565191       15.9928004557      -26.9675218556  TIP3      4436            0.0000000000
     26776      4582  TIP3      H2             27.3917985124       16.2677619854      -28.1752085988  TIP3      4436            0.0000000000
     26777      4583  TIP3      OH2            28.1566886291       17.0294087390      -41.4887037643  TIP3      4437            0.0000000000
     26778      4583  TIP3      H1             28.6342152180       17.6802118432      -40.9314976327  TIP3      4437            0.0000000000
     26779      4583  TIP3      H2             27.2774068690       16.9761700213      -41.0530415037  TIP3      4437            0.0000000000
     26780      4584  TIP3      OH2            28.7227843047       11.0133823262      -28.6509689578  TIP3      4438            0.0000000000
     26781      4584  TIP3      H1             28.0452832535       11.7036600977      -28.7527256722  TIP3      4438            0.0000000000
     26782      4584  TIP3      H2             28.1443875804       10.2503900679      -28.4524034924  TIP3      4438            0.0000000000
     26783      4585  TIP3      OH2            28.4158646241       23.2130778405      -30.0587190117  TIP3      4439            0.0000000000
     26784      4585  TIP3      H1             29.0835959109       22.5162688674      -30.0072207087  TIP3      4439            0.0000000000
     26785      4585  TIP3      H2             28.6402946944       23.7251726800      -29.2596170509  TIP3      4439            0.0000000000
     26786      4586  TIP3      OH2            29.4832118279       18.6503179562      -39.7733167642  TIP3      4440            0.0000000000
     26787      4586  TIP3      H1             28.6931578266       18.7579578639      -39.2116052719  TIP3      4440            0.0000000000
     26788      4586  TIP3      H2             30.1491610254       19.0839331330      -39.1922413891  TIP3      4440            0.0000000000
     26789      4587  TIP3      OH2            28.5680215733       14.1764501818      -41.6626978356  TIP3      4441            0.0000000000
     26790      4587  TIP3      H1             28.7402947798       14.9883455671      -41.1568954436  TIP3      4441            0.0000000000
     26791      4587  TIP3      H2             27.9312804317       14.4981130216      -42.3164179411  TIP3      4441            0.0000000000
     26792      4588  TIP3      OH2            28.9362467288        8.5835749139      -32.3391690336  TIP3      4442            0.0000000000
     26793      4588  TIP3      H1             28.8060860948        8.6904678151      -33.3099365166  TIP3      4442            0.0000000000
     26794      4588  TIP3      H2             28.7446861835        7.6318900527      -32.2555971662  TIP3      4442            0.0000000000
     26795      4589  TIP3      OH2            27.7453900602       22.6564352564      -36.2621118887  TIP3      4443            0.0000000000
     26796      4589  TIP3      H1             27.2103515851       23.1903691808      -36.8811480026  TIP3      4443            0.0000000000
     26797      4589  TIP3      H2             28.5593678925       22.6186776086      -36.7774280994  TIP3      4443            0.0000000000
     26798      4590  TIP3      OH2            27.6714777325       25.0561370371      -25.4850080289  TIP3      4444            0.0000000000
     26799      4590  TIP3      H1             28.4955567067       24.5983608375      -25.2762533570  TIP3      4444            0.0000000000
     26800      4590  TIP3      H2             27.0530424905       24.3120479586      -25.6716746573  TIP3      4444            0.0000000000
     26801      4591  TIP3      OH2            27.0639840606       18.6435008751      -24.5773532200  TIP3      4445            0.0000000000
     26802      4591  TIP3      H1             27.4593000852       17.8903945233      -25.0599851080  TIP3      4445            0.0000000000
     26803      4591  TIP3      H2             26.6333159851       19.1463858636      -25.3102878329  TIP3      4445            0.0000000000
     26804      4592  TIP3      OH2            29.0188380145       16.4660892429      -24.6945894876  TIP3      4446            0.0000000000
     26805      4592  TIP3      H1             29.8821928855       15.9960482667      -24.7135250091  TIP3      4446            0.0000000000
     26806      4592  TIP3      H2             28.7605183815       16.3402781336      -23.7715176808  TIP3      4446            0.0000000000
     26807      4593  TIP3      OH2            28.7508803611       11.7396699151      -24.7821437482  TIP3      4447            0.0000000000
     26808      4593  TIP3      H1             28.7217659033       10.9226500150      -25.3117612186  TIP3      4447            0.0000000000
     26809      4593  TIP3      H2             29.1415258891       11.3990460685      -23.9658807924  TIP3      4447            0.0000000000
     26810      4594  TIP3      OH2            27.4521889027       20.6772868251      -41.1891565166  TIP3      4448            0.0000000000
     26811      4594  TIP3      H1             28.3856276808       20.5189369426      -40.9535919372  TIP3      4448            0.0000000000
     26812      4594  TIP3      H2             27.4705740200       20.5720477060      -42.1569847680  TIP3      4448            0.0000000000
     26813      4595  TIP3      OH2            26.6833372879       25.7080970253      -36.5904248884  TIP3      4449            0.0000000000
     26814      4595  TIP3      H1             25.7471249912       25.4326509071      -36.6931077674  TIP3      4449            0.0000000000
     26815      4595  TIP3      H2             26.8352425913       25.4309870707      -35.6563655193  TIP3      4449            0.0000000000
     26816      4596  TIP3      OH2            26.7726420624       24.6960187808      -34.1321405867  TIP3      4450            0.0000000000
     26817      4596  TIP3      H1             26.7116124585       23.7754784976      -34.4381971561  TIP3      4450            0.0000000000
     26818      4596  TIP3      H2             27.4653797449       24.5998107868      -33.4494076967  TIP3      4450            0.0000000000
     26819      4597  TIP3      OH2            27.2125211257       17.5461853173      -31.6731828293  TIP3      4451            0.0000000000
     26820      4597  TIP3      H1             27.4996859275       17.3336067508      -32.5767206938  TIP3      4451            0.0000000000
     26821      4597  TIP3      H2             28.0425995315       17.3939411396      -31.1610422220  TIP3      4451            0.0000000000
     26822      4598  TIP3      OH2            26.4104986940       12.5467711426      -25.7649245704  TIP3      4452            0.0000000000
     26823      4598  TIP3      H1             27.3084284129       12.4397009465      -25.3710299263  TIP3      4452            0.0000000000
     26824      4598  TIP3      H2             25.9619958095       11.7617014829      -25.4101883977  TIP3      4452            0.0000000000
     26825      4599  TIP3      OH2            28.1567092969       11.2607361724      -32.9624245792  TIP3      4453            0.0000000000
     26826      4599  TIP3      H1             28.4897437583       10.3482311876      -32.8270700224  TIP3      4453            0.0000000000
     26827      4599  TIP3      H2             28.9942881199       11.7503947027      -32.8969505412  TIP3      4453            0.0000000000
     26828      4600  TIP3      OH2            26.4291244873       14.3588587879      -31.4881468883  TIP3      4454            0.0000000000
     26829      4600  TIP3      H1             27.0285383565       14.1266502657      -32.2300830770  TIP3      4454            0.0000000000
     26830      4600  TIP3      H2             26.7301573728       15.2640240142      -31.3498441234  TIP3      4454            0.0000000000
     26831      4601  TIP3      OH2            26.7597036965       10.0134180135      -37.7375986005  TIP3      4455            0.0000000000
     26832      4601  TIP3      H1             25.8291043353        9.8263524860      -37.5653745139  TIP3      4455            0.0000000000
     26833      4601  TIP3      H2             26.7189935176       10.5683171142      -38.5440964613  TIP3      4455            0.0000000000
     26834      4602  TIP3      OH2            26.7101605067        8.9117293547      -29.4856648483  TIP3      4456            0.0000000000
     26835      4602  TIP3      H1             25.9816474205        8.7703497975      -28.8624401965  TIP3      4456            0.0000000000
     26836      4602  TIP3      H2             26.3014330912        9.4125905680      -30.2218655052  TIP3      4456            0.0000000000
     26837      4603  TIP3      OH2            29.4554161180       22.8030648043      -25.0082063449  TIP3      4457            0.0000000000
     26838      4603  TIP3      H1             28.9202097991       22.6841085169      -25.8078584074  TIP3      4457            0.0000000000
     26839      4603  TIP3      H2             29.0408817477       22.1221285099      -24.4410188555  TIP3      4457            0.0000000000
     26840      4604  TIP3      OH2            29.2870721685       26.2027776485      -28.8395658968  TIP3      4458            0.0000000000
     26841      4604  TIP3      H1             28.7060035915       26.4537326968      -29.5833748230  TIP3      4458            0.0000000000
     26842      4604  TIP3      H2             28.8530813312       26.6443681569      -28.0910953411  TIP3      4458            0.0000000000
     26843      4605  TIP3      OH2            28.7985916317       24.5767549586      -32.4422621216  TIP3      4459            0.0000000000
     26844      4605  TIP3      H1             28.7401991288       23.9721583327      -31.6716128920  TIP3      4459            0.0000000000
     26845      4605  TIP3      H2             29.6552235258       24.3342604264      -32.8435186426  TIP3      4459            0.0000000000
     26846      4606  TIP3      OH2            28.6845434911        8.6881442125      -35.1391834288  TIP3      4460            0.0000000000
     26847      4606  TIP3      H1             27.8830173634        9.0189609144      -35.5714441827  TIP3      4460            0.0000000000
     26848      4606  TIP3      H2             29.1570773261        8.3035413678      -35.9046237546  TIP3      4460            0.0000000000
     26849      4607  TIP3      OH2            27.5207737048        8.3146168831      -40.1725210487  TIP3      4461            0.0000000000
     26850      4607  TIP3      H1             28.1887999649        8.8552701139      -40.6527114101  TIP3      4461            0.0000000000
     26851      4607  TIP3      H2             27.3865126472        8.8226525153      -39.3626906081  TIP3      4461            0.0000000000
     26852      4608  TIP3      OH2            27.4839232871       24.0086098808      -38.6427208937  TIP3      4462            0.0000000000
     26853      4608  TIP3      H1             27.3444733094       24.3050554670      -39.5573544776  TIP3      4462            0.0000000000
     26854      4608  TIP3      H2             27.2821900527       24.8314891264      -38.1498174261  TIP3      4462            0.0000000000
     26855      4609  TIP3      OH2            29.5901207955        9.7938639147      -40.9869759351  TIP3      4463            0.0000000000
     26856      4609  TIP3      H1             30.1339792768        9.2400534368      -41.5824989975  TIP3      4463            0.0000000000
     26857      4609  TIP3      H2             29.9311625336       10.6868136555      -41.1773780986  TIP3      4463            0.0000000000
     26858      4610  TIP3      OH2            28.8184975907        8.7791981828      -26.1642587722  TIP3      4464            0.0000000000
     26859      4610  TIP3      H1             28.2212851016        8.0132298570      -26.0801219349  TIP3      4464            0.0000000000
     26860      4610  TIP3      H2             29.1824104837        8.8567049422      -25.2602416127  TIP3      4464            0.0000000000
     26861      4611  TIP3      OH2            29.4517734420       25.1887142638      -41.8914151971  TIP3      4465            0.0000000000
     26862      4611  TIP3      H1             29.0323870137       25.9134859545      -41.4009227915  TIP3      4465            0.0000000000
     26863      4611  TIP3      H2             30.1718820563       25.6807390739      -42.3103055160  TIP3      4465            0.0000000000
     26864      4612  TIP3      OH2           -12.8521830252       29.3541050843      -30.2310748498  TIP3      4466            0.0000000000
     26865      4612  TIP3      H1            -12.1947055240       30.0412044126      -29.9832514870  TIP3      4466            0.0000000000
     26866      4612  TIP3      H2            -13.0602054514       29.6221616003      -31.1484850000  TIP3      4466            0.0000000000
     26867      4613  TIP3      OH2           -26.5556441323       30.2567631271      -29.5026671957  TIP3      4467            0.0000000000
     26868      4613  TIP3      H1            -26.7282741494       30.5161071155      -30.4248127360  TIP3      4467            0.0000000000
     26869      4613  TIP3      H2            -27.4541928676       30.0273075601      -29.2195649503  TIP3      4467            0.0000000000
     26870      4614  TIP3      OH2           -15.7746063316       29.5795012190      -34.5087794611  TIP3      4468            0.0000000000
     26871      4614  TIP3      H1            -15.1978017262       29.6333627566      -33.7231196869  TIP3      4468            0.0000000000
     26872      4614  TIP3      H2            -15.2143901212       30.0299965348      -35.1530922204  TIP3      4468            0.0000000000
     26873      4615  TIP3      OH2           -15.5822910527       28.8564684359      -29.8569705269  TIP3      4469            0.0000000000
     26874      4615  TIP3      H1            -16.1922162203       29.3527544050      -30.4466692787  TIP3      4469            0.0000000000
     26875      4615  TIP3      H2            -14.7204141844       29.0319146820      -30.2778660735  TIP3      4469            0.0000000000
     26876      4616  TIP3      OH2           -22.1375434488       26.7940237809      -32.4983230513  TIP3      4470            0.0000000000
     26877      4616  TIP3      H1            -22.2836008894       26.1026633111      -33.1638585383  TIP3      4470            0.0000000000
     26878      4616  TIP3      H2            -23.0622298326       27.1346496958      -32.3988128827  TIP3      4470            0.0000000000
     26879      4617  TIP3      OH2           -13.4582021785       26.6872505940      -39.2261810345  TIP3      4471            0.0000000000
     26880      4617  TIP3      H1            -14.3863550049       26.8750885912      -39.4345198460  TIP3      4471            0.0000000000
     26881      4617  TIP3      H2            -13.0124845818       27.4816874777      -39.5784250773  TIP3      4471            0.0000000000
     26882      4618  TIP3      OH2           -24.6589266260       27.8490592681      -32.2310436619  TIP3      4472            0.0000000000
     26883      4618  TIP3      H1            -25.6092766810       28.0482341759      -32.3616029756  TIP3      4472            0.0000000000
     26884      4618  TIP3      H2            -24.4707645789       28.3639822904      -31.4120719711  TIP3      4472            0.0000000000
     26885      4619  TIP3      OH2           -20.4658432440       27.9591849765      -28.0214502397  TIP3      4473            0.0000000000
     26886      4619  TIP3      H1            -19.7037761564       27.4908866707      -27.6059997934  TIP3      4473            0.0000000000
     26887      4619  TIP3      H2            -21.0888714344       27.2278589649      -28.1317719282  TIP3      4473            0.0000000000
     26888      4620  TIP3      OH2           -20.2073837762      -29.3860082965      -41.0766411739  TIP3      4474            0.0000000000
     26889      4620  TIP3      H1            -20.6450568463      -29.9344431525      -40.4147724795  TIP3      4474            0.0000000000
     26890      4620  TIP3      H2            -19.8468755738      -30.0523073369      -41.6679697182  TIP3      4474            0.0000000000
     26891      4621  TIP3      OH2           -17.4970797747       29.9507251145      -31.5529139034  TIP3      4475            0.0000000000
     26892      4621  TIP3      H1            -18.0343695281       30.0834393382      -30.7573727383  TIP3      4475            0.0000000000
     26893      4621  TIP3      H2            -18.0439956033       29.2642610238      -31.9893909360  TIP3      4475            0.0000000000
     26894      4622  TIP3      OH2           -25.8831026322       29.4665552027      -36.1606612640  TIP3      4476            0.0000000000
     26895      4622  TIP3      H1            -26.0074110385       28.5065771720      -35.9856413757  TIP3      4476            0.0000000000
     26896      4622  TIP3      H2            -24.9121452925       29.5509209298      -36.1931202369  TIP3      4476            0.0000000000
     26897      4623  TIP3      OH2           -18.5671678892       29.8510811434      -28.6400063474  TIP3      4477            0.0000000000
     26898      4623  TIP3      H1            -17.8587181037       29.2914466768      -28.2879811891  TIP3      4477            0.0000000000
     26899      4623  TIP3      H2            -19.3704760259       29.3382807968      -28.4053987806  TIP3      4477            0.0000000000
     26900      4624  TIP3      OH2           -18.4621544087       29.4804282485      -37.4513739278  TIP3      4478            0.0000000000
     26901      4624  TIP3      H1            -18.8161687730       29.9965167812      -38.1901149920  TIP3      4478            0.0000000000
     26902      4624  TIP3      H2            -18.3726047914       30.1592722112      -36.7548977454  TIP3      4478            0.0000000000
     26903      4625  TIP3      OH2           -20.5701321853       28.0010038108      -36.6232364816  TIP3      4479            0.0000000000
     26904      4625  TIP3      H1            -20.9028265250       28.6269139384      -35.9574751236  TIP3      4479            0.0000000000
     26905      4625  TIP3      H2            -19.6852692224       28.4101115574      -36.7921957608  TIP3      4479            0.0000000000
     26906      4626  TIP3      OH2           -24.6201231253       29.3453810800      -39.2568753739  TIP3      4480            0.0000000000
     26907      4626  TIP3      H1            -23.9996255499       30.0806661988      -39.3147350381  TIP3      4480            0.0000000000
     26908      4626  TIP3      H2            -24.0634587323       28.6300949640      -38.8999981714  TIP3      4480            0.0000000000
     26909      4627  TIP3      OH2           -27.3380025630       27.7944586876      -32.6687402509  TIP3      4481            0.0000000000
     26910      4627  TIP3      H1            -27.2852317498       27.5343870292      -33.6175298519  TIP3      4481            0.0000000000
     26911      4627  TIP3      H2            -27.4868887065       26.9227387335      -32.2622561643  TIP3      4481            0.0000000000
     26912      4628  TIP3      OH2           -24.0873495954       29.2999354925      -29.9872360643  TIP3      4482            0.0000000000
     26913      4628  TIP3      H1            -23.5191713701       30.0934057926      -29.9867558634  TIP3      4482            0.0000000000
     26914      4628  TIP3      H2            -24.9623162485       29.6321091892      -29.6626876210  TIP3      4482            0.0000000000
     26915      4629  TIP3      OH2           -23.0886029237       26.8620032293      -28.8062338793  TIP3      4483            0.0000000000
     26916      4629  TIP3      H1            -23.1711376180       27.8080957383      -29.0543538363  TIP3      4483            0.0000000000
     26917      4629  TIP3      H2            -23.5735849428       26.4597093313      -29.5552664133  TIP3      4483            0.0000000000
     26918      4630  TIP3      OH2           -17.1127162832       28.5928345791      -23.0858130655  TIP3      4484            0.0000000000
     26919      4630  TIP3      H1            -17.0579302262       27.8676186124      -23.7425896212  TIP3      4484            0.0000000000
     26920      4630  TIP3      H2            -17.7119234672       28.1978931518      -22.4404148396  TIP3      4484            0.0000000000
     26921      4631  TIP3      OH2           -23.0892661734       26.5845218089      -26.2129425544  TIP3      4485            0.0000000000
     26922      4631  TIP3      H1            -22.1494407148       26.3259661197      -26.1254561382  TIP3      4485            0.0000000000
     26923      4631  TIP3      H2            -23.1409157673       26.8339496379      -27.1680231972  TIP3      4485            0.0000000000
     26924      4632  TIP3      OH2           -14.0985936413       28.9241532308      -37.0896217465  TIP3      4486            0.0000000000
     26925      4632  TIP3      H1            -13.8001360438       28.3797644700      -36.3325320705  TIP3      4486            0.0000000000
     26926      4632  TIP3      H2            -14.8854707211       28.4415727754      -37.4313517163  TIP3      4486            0.0000000000
     26927      4633  TIP3      OH2           -29.2387908294       29.9715134637      -32.6564364290  TIP3      4487            0.0000000000
     26928      4633  TIP3      H1            -28.7691244857       29.1119852701      -32.6275038548  TIP3      4487            0.0000000000
     26929      4633  TIP3      H2            -28.5205099445       30.6112567426      -32.7454574833  TIP3      4487            0.0000000000
     26930      4634  TIP3      OH2           -12.0307906497       29.0520130089      -25.6383216919  TIP3      4488            0.0000000000
     26931      4634  TIP3      H1            -12.7954264582       28.7509122570      -26.1555895468  TIP3      4488            0.0000000000
     26932      4634  TIP3      H2            -11.3374900110       28.4187066503      -25.8984390975  TIP3      4488            0.0000000000
     26933      4635  TIP3      OH2           -11.3995156882       28.5667276906      -40.8774410844  TIP3      4489            0.0000000000
     26934      4635  TIP3      H1            -12.0932480077       28.2796331304      -41.4820107825  TIP3      4489            0.0000000000
     26935      4635  TIP3      H2            -11.7196602870       29.4715520968      -40.7110777017  TIP3      4489            0.0000000000
     26936      4636  TIP3      OH2            29.8355574589       29.1178758124      -37.7377908033  TIP3      4490            0.0000000000
     26937      4636  TIP3      H1             28.9794458730       28.8251989147      -38.0913533215  TIP3      4490            0.0000000000
     26938      4636  TIP3      H2             30.1344885752       29.7214243607      -38.4493256884  TIP3      4490            0.0000000000
     26939      4637  TIP3      OH2           -29.9916126176       28.9551069341      -29.7088980316  TIP3      4491            0.0000000000
     26940      4637  TIP3      H1            -30.5476470959       28.2468738637      -29.3486250175  TIP3      4491            0.0000000000
     26941      4637  TIP3      H2            -30.5098445974       29.2864165233      -30.4577595907  TIP3      4491            0.0000000000
     26942      4638  TIP3      OH2           -13.3768099369       27.0672638004      -27.5309228312  TIP3      4492            0.0000000000
     26943      4638  TIP3      H1            -13.8394435012       27.3762913506      -28.3246004598  TIP3      4492            0.0000000000
     26944      4638  TIP3      H2            -13.1224370444       26.1663658910      -27.8302362789  TIP3      4492            0.0000000000
     26945      4639  TIP3      OH2           -19.3621124273       28.2295619634      -32.6914646744  TIP3      4493            0.0000000000
     26946      4639  TIP3      H1            -20.2273814881       27.7982188869      -32.7587069304  TIP3      4493            0.0000000000
     26947      4639  TIP3      H2            -18.8045185368       27.6705711897      -33.2592074890  TIP3      4493            0.0000000000
     26948      4640  TIP3      OH2           -14.6057756560       26.6114079508      -33.3844311277  TIP3      4494            0.0000000000
     26949      4640  TIP3      H1            -13.9176773084       27.0763952995      -33.9071214996  TIP3      4494            0.0000000000
     26950      4640  TIP3      H2            -15.3918214856       27.1232136516      -33.6700534289  TIP3      4494            0.0000000000
     26951      4641  TIP3      OH2           -12.7310747906       27.8701585931      -35.0716147330  TIP3      4495            0.0000000000
     26952      4641  TIP3      H1            -12.0591001009       27.3115443370      -35.5297080496  TIP3      4495            0.0000000000
     26953      4641  TIP3      H2            -12.1785818733       28.4788951715      -34.5556503072  TIP3      4495            0.0000000000
     26954      4642  TIP3      OH2           -27.0306344637       27.2469454579      -35.2213317468  TIP3      4496            0.0000000000
     26955      4642  TIP3      H1            -27.6722159214       27.2883899262      -35.9540113492  TIP3      4496            0.0000000000
     26956      4642  TIP3      H2            -26.7269522065       26.3111032668      -35.2964884001  TIP3      4496            0.0000000000
     26957      4643  TIP3      OH2           -28.6377241216       27.1340948032      -39.7678259960  TIP3      4497            0.0000000000
     26958      4643  TIP3      H1            -28.1169948527       27.9561499524      -39.8680433699  TIP3      4497            0.0000000000
     26959      4643  TIP3      H2            -29.3952346506       27.4187466283      -39.2192107719  TIP3      4497            0.0000000000
     26960      4644  TIP3      OH2           -23.1728605223       26.4415940031      -35.7952455303  TIP3      4498            0.0000000000
     26961      4644  TIP3      H1            -22.3838726412       26.7000334104      -36.3023285705  TIP3      4498            0.0000000000
     26962      4644  TIP3      H2            -23.2768528266       27.1854991261      -35.1937729302  TIP3      4498            0.0000000000
     26963      4645  TIP3      OH2           -17.3014263963       26.9588350611      -34.7870234808  TIP3      4499            0.0000000000
     26964      4645  TIP3      H1            -16.7791136712       26.7230711448      -35.5747817790  TIP3      4499            0.0000000000
     26965      4645  TIP3      H2            -17.6361403831       26.1009682323      -34.4868329134  TIP3      4499            0.0000000000
     26966      4646  TIP3      OH2           -16.3174574227       27.6161188899      -37.8470205491  TIP3      4500            0.0000000000
     26967      4646  TIP3      H1            -17.2199129068       27.9880911203      -37.7681977797  TIP3      4500            0.0000000000
     26968      4646  TIP3      H2            -16.4763494793       26.6493977249      -37.9291312854  TIP3      4500            0.0000000000
     26969      4647  TIP3      OH2           -26.8829855406       29.3259355850      -40.9933261447  TIP3      4501            0.0000000000
     26970      4647  TIP3      H1            -26.3149793406       29.0532581352      -41.7250818958  TIP3      4501            0.0000000000
     26971      4647  TIP3      H2            -26.2470628939       29.4798984855      -40.2594435123  TIP3      4501            0.0000000000
     26972      4648  TIP3      OH2           -21.7530196357       29.5268855655      -38.8698635369  TIP3      4502            0.0000000000
     26973      4648  TIP3      H1            -21.4120030680       29.0530669235      -38.0955847969  TIP3      4502            0.0000000000
     26974      4648  TIP3      H2            -21.8635879866       30.4189453705      -38.5128986585  TIP3      4502            0.0000000000
     26975      4649  TIP3      OH2           -28.1831829498       28.1377522460      -25.7767446144  TIP3      4503            0.0000000000
     26976      4649  TIP3      H1            -28.0653151392       27.1685610770      -25.7560614789  TIP3      4503            0.0000000000
     26977      4649  TIP3      H2            -27.2725769711       28.4624483197      -25.8008706044  TIP3      4503            0.0000000000
     26978      4650  TIP3      OH2           -25.2056899813       27.2833604122      -24.4501186582  TIP3      4504            0.0000000000
     26979      4650  TIP3      H1            -24.4454418625       27.0165803322      -25.0064726815  TIP3      4504            0.0000000000
     26980      4650  TIP3      H2            -25.4852192130       26.4158109336      -24.1143953006  TIP3      4504            0.0000000000
     26981      4651  TIP3      OH2           -17.3441688401       26.3019731519      -24.4972492728  TIP3      4505            0.0000000000
     26982      4651  TIP3      H1            -17.3246154060       25.7256916520      -23.6955541223  TIP3      4505            0.0000000000
     26983      4651  TIP3      H2            -16.4324445387       26.1606869295      -24.8260156756  TIP3      4505            0.0000000000
     26984      4652  TIP3      OH2             6.3326890029       29.4852321048      -30.4624216005  TIP3      4506            0.0000000000
     26985      4652  TIP3      H1              6.9508675128       30.1855113411      -30.1620358252  TIP3      4506            0.0000000000
     26986      4652  TIP3      H2              6.5432284000       29.4837274202      -31.4165273900  TIP3      4506            0.0000000000
     26987      4653  TIP3      OH2            -7.9256257578       29.4235965794      -29.9779289915  TIP3      4507            0.0000000000
     26988      4653  TIP3      H1             -7.9641539497       30.0342795322      -30.7273222781  TIP3      4507            0.0000000000
     26989      4653  TIP3      H2             -8.6100617763       29.7551990734      -29.3928410851  TIP3      4507            0.0000000000
     26990      4654  TIP3      OH2             3.2103521194       29.4134646079      -34.7814335230  TIP3      4508            0.0000000000
     26991      4654  TIP3      H1              3.9338910742       29.5520142999      -34.1309467881  TIP3      4508            0.0000000000
     26992      4654  TIP3      H2              3.7186022511       29.1202441391      -35.5752085120  TIP3      4508            0.0000000000
     26993      4655  TIP3      OH2             3.4498087111       28.7914917496      -30.0563405667  TIP3      4509            0.0000000000
     26994      4655  TIP3      H1              2.8458102987       29.2207521257      -30.7064691617  TIP3      4509            0.0000000000
     26995      4655  TIP3      H2              4.3209788492       29.0642493620      -30.3964866748  TIP3      4509            0.0000000000
     26996      4656  TIP3      OH2            -3.3121481782       26.6190495545      -32.5972391909  TIP3      4510            0.0000000000
     26997      4656  TIP3      H1             -3.5904473492       25.7975206339      -33.0363667810  TIP3      4510            0.0000000000
     26998      4656  TIP3      H2             -4.2070354512       27.0235658540      -32.4373224010  TIP3      4510            0.0000000000
     26999      4657  TIP3      OH2             5.4794411597       26.8930501446      -39.1037666406  TIP3      4511            0.0000000000
     27000      4657  TIP3      H1              4.6274327794       27.1280790912      -39.5245664294  TIP3      4511            0.0000000000
     27001      4657  TIP3      H2              6.0505958572       27.5666639531      -39.5474604232  TIP3      4511            0.0000000000
     27002      4658  TIP3      OH2            -5.8052895324       27.5080566984      -32.2772384913  TIP3      4512            0.0000000000
     27003      4658  TIP3      H1             -6.7330223090       27.5452902890      -32.5703324068  TIP3      4512            0.0000000000
     27004      4658  TIP3      H2             -5.8054490704       28.2910030628      -31.6936860110  TIP3      4512            0.0000000000
     27005      4659  TIP3      OH2            -1.4479647066       27.8641871503      -28.2149138763  TIP3      4513            0.0000000000
     27006      4659  TIP3      H1             -0.9282085030       27.2455250037      -27.6496975557  TIP3      4513            0.0000000000
     27007      4659  TIP3      H2             -2.2871703537       27.3829096821      -28.3542400554  TIP3      4513            0.0000000000
     27008      4660  TIP3      OH2            -1.6070923365      -29.4442767943      -41.2255724781  TIP3      4514            0.0000000000
     27009      4660  TIP3      H1             -1.9763408764      -30.0681125660      -40.5692533889  TIP3      4514            0.0000000000
     27010      4660  TIP3      H2             -1.1391889770      -30.0481286870      -41.8153992336  TIP3      4514            0.0000000000
     27011      4661  TIP3      OH2             1.5278194125       29.7930714170      -31.8217420069  TIP3      4515            0.0000000000
     27012      4661  TIP3      H1              0.8620286838       29.6783603080      -31.1178128579  TIP3      4515            0.0000000000
     27013      4661  TIP3      H2              1.3183840602       29.1392340687      -32.5015293280  TIP3      4515            0.0000000000
     27014      4662  TIP3      OH2            -7.0671842716       28.7768911281      -36.7332522933  TIP3      4516            0.0000000000
     27015      4662  TIP3      H1             -6.7813686967       27.9221236379      -36.3788944051  TIP3      4516            0.0000000000
     27016      4662  TIP3      H2             -6.3101317211       29.3486889573      -36.4621419189  TIP3      4516            0.0000000000
     27017      4663  TIP3      OH2             0.4802691426       29.7478937468      -29.1540618046  TIP3      4517            0.0000000000
     27018      4663  TIP3      H1              1.2507798832       29.5228987081      -28.6149000364  TIP3      4517            0.0000000000
     27019      4663  TIP3      H2             -0.2132042607       29.1266349504      -28.8503269520  TIP3      4517            0.0000000000
     27020      4664  TIP3      OH2             0.5398179893      -30.1964288982      -37.7438795642  TIP3      4518            0.0000000000
     27021      4664  TIP3      H1              0.2453292846      -29.5353035815      -38.3890816148  TIP3      4518            0.0000000000
     27022      4664  TIP3      H2              0.8306969922      -29.6348864220      -37.0043531331  TIP3      4518            0.0000000000
     27023      4665  TIP3      OH2            -1.3981162136       28.4378612938      -36.7342444374  TIP3      4519            0.0000000000
     27024      4665  TIP3      H1             -1.7811833950       28.8919081367      -35.9688363730  TIP3      4519            0.0000000000
     27025      4665  TIP3      H2             -0.5904028418       28.9864272731      -36.8664341775  TIP3      4519            0.0000000000
     27026      4666  TIP3      OH2            -5.3703309550       29.9469120196      -39.0212146291  TIP3      4520            0.0000000000
     27027      4666  TIP3      H1             -4.8453720868       30.6914863027      -39.3290830713  TIP3      4520            0.0000000000
     27028      4666  TIP3      H2             -4.7186060084       29.2783018963      -38.7660222130  TIP3      4520            0.0000000000
     27029      4667  TIP3      OH2            -8.4735948624       27.4308586483      -32.7010980873  TIP3      4521            0.0000000000
     27030      4667  TIP3      H1             -8.4331619425       27.3110327427      -33.6724685788  TIP3      4521            0.0000000000
     27031      4667  TIP3      H2             -8.5442379109       26.4966044724      -32.4083825423  TIP3      4521            0.0000000000
     27032      4668  TIP3      OH2            -5.2031978075       29.2148094542      -30.1512765734  TIP3      4522            0.0000000000
     27033      4668  TIP3      H1             -4.6391764020       29.9504527324      -29.8101449899  TIP3      4522            0.0000000000
     27034      4668  TIP3      H2             -6.0945554216       29.4296386035      -29.7905178726  TIP3      4522            0.0000000000
     27035      4669  TIP3      OH2            -4.1210038653       27.0326607728      -28.6134126307  TIP3      4523            0.0000000000
     27036      4669  TIP3      H1             -4.3700164284       27.9027462106      -28.9935590449  TIP3      4523            0.0000000000
     27037      4669  TIP3      H2             -4.7162686177       26.4467573566      -29.1203160625  TIP3      4523            0.0000000000
     27038      4670  TIP3      OH2             1.5164993249       28.7304615848      -23.2798678090  TIP3      4524            0.0000000000
     27039      4670  TIP3      H1              1.3324386525       27.9348973429      -23.8263557388  TIP3      4524            0.0000000000
     27040      4670  TIP3      H2              0.6881634710       28.8294927669      -22.7577615555  TIP3      4524            0.0000000000
     27041      4671  TIP3      OH2            -3.5658164956       26.6897825373      -25.9537601493  TIP3      4525            0.0000000000
     27042      4671  TIP3      H1             -3.0554944347       25.8778467032      -26.1659998638  TIP3      4525            0.0000000000
     27043      4671  TIP3      H2             -3.8335381591       26.9631878989      -26.8604714277  TIP3      4525            0.0000000000
     27044      4672  TIP3      OH2            -3.4577669500       28.3238532485      -23.5026505014  TIP3      4526            0.0000000000
     27045      4672  TIP3      H1             -3.8721882282       27.6120568998      -22.9479534302  TIP3      4526            0.0000000000
     27046      4672  TIP3      H2             -3.2804757225       27.7608758521      -24.2808866228  TIP3      4526            0.0000000000
     27047      4673  TIP3      OH2             4.7051134269       28.7544375760      -36.8089626816  TIP3      4527            0.0000000000
     27048      4673  TIP3      H1              5.4536846558       28.2230880898      -36.4776000246  TIP3      4527            0.0000000000
     27049      4673  TIP3      H2              4.8188287909       28.7497803202      -37.7705479288  TIP3      4527            0.0000000000
     27050      4674  TIP3      OH2           -10.2286599992       29.5900083741      -32.4693076497  TIP3      4528            0.0000000000
     27051      4674  TIP3      H1             -9.7426257238       28.7353073923      -32.4159764087  TIP3      4528            0.0000000000
     27052      4674  TIP3      H2            -10.4444332866       29.7622838678      -31.5418571635  TIP3      4528            0.0000000000
     27053      4675  TIP3      OH2             6.5177146354       29.2244485184      -25.2443396495  TIP3      4529            0.0000000000
     27054      4675  TIP3      H1              5.6968726456       29.4696418764      -25.6982034745  TIP3      4529            0.0000000000
     27055      4675  TIP3      H2              6.7241444225       28.3599046441      -25.6407584437  TIP3      4529            0.0000000000
     27056      4676  TIP3      OH2             7.0295810323       28.5325228750      -40.7663619880  TIP3      4530            0.0000000000
     27057      4676  TIP3      H1              6.6798248424       27.9750751633      -41.4884804531  TIP3      4530            0.0000000000
     27058      4676  TIP3      H2              6.8611461486       29.4263779587      -41.1208266614  TIP3      4530            0.0000000000
     27059      4677  TIP3      OH2           -11.1505378637       28.9208462325      -37.6835827397  TIP3      4531            0.0000000000
     27060      4677  TIP3      H1            -11.9576790248       28.5772511135      -37.2619775015  TIP3      4531            0.0000000000
     27061      4677  TIP3      H2            -11.5739204434       29.6219278711      -38.2219181249  TIP3      4531            0.0000000000
     27062      4678  TIP3      OH2           -10.9547365189       27.7229362250      -29.3385170553  TIP3      4532            0.0000000000
     27063      4678  TIP3      H1            -11.3625758879       27.0993047127      -28.7249120804  TIP3      4532            0.0000000000
     27064      4678  TIP3      H2            -11.7446806105       28.2172152725      -29.6265546547  TIP3      4532            0.0000000000
     27065      4679  TIP3      OH2             5.5826013977       27.0866109481      -27.3772702490  TIP3      4533            0.0000000000
     27066      4679  TIP3      H1              5.0997838176       27.2472580031      -28.2019009311  TIP3      4533            0.0000000000
     27067      4679  TIP3      H2              5.8638709176       26.1586290766      -27.5325959645  TIP3      4533            0.0000000000
     27068      4680  TIP3      OH2            -1.2012686725       28.1769242483      -33.7121463615  TIP3      4534            0.0000000000
     27069      4680  TIP3      H1             -1.8258396225       27.5491109377      -33.3023790227  TIP3      4534            0.0000000000
     27070      4680  TIP3      H2             -0.5375237473       27.6082997384      -34.1304042951  TIP3      4534            0.0000000000
     27071      4681  TIP3      OH2             4.4122462587       26.5100751376      -33.4460504710  TIP3      4535            0.0000000000
     27072      4681  TIP3      H1              5.1696973620       26.9717804347      -33.8783661849  TIP3      4535            0.0000000000
     27073      4681  TIP3      H2              3.7200244033       27.1819740227      -33.5975981037  TIP3      4535            0.0000000000
     27074      4682  TIP3      OH2             6.2753599166       27.7875617610      -34.9081218705  TIP3      4536            0.0000000000
     27075      4682  TIP3      H1              6.9411020288       27.3388956925      -35.4752853759  TIP3      4536            0.0000000000
     27076      4682  TIP3      H2              6.8168116947       28.4070324873      -34.4141805987  TIP3      4536            0.0000000000
     27077      4683  TIP3      OH2            -8.8150415339       26.7730434358      -35.2856520866  TIP3      4537            0.0000000000
     27078      4683  TIP3      H1             -9.6601475486       26.5757931981      -35.7379864073  TIP3      4537            0.0000000000
     27079      4683  TIP3      H2             -8.3075890559       25.9380697199      -35.4192124421  TIP3      4537            0.0000000000
     27080      4684  TIP3      OH2            -9.0933279159       27.3490801876      -39.8881413787  TIP3      4538            0.0000000000
     27081      4684  TIP3      H1             -8.5401295595       27.8092001160      -40.5675046432  TIP3      4538            0.0000000000
     27082      4684  TIP3      H2             -9.9860334079       27.6906532343      -40.1178798909  TIP3      4538            0.0000000000
     27083      4685  TIP3      OH2            -4.5030809107       26.9321725613      -35.7102396093  TIP3      4539            0.0000000000
     27084      4685  TIP3      H1             -3.5971297870       26.9241301237      -36.0394043854  TIP3      4539            0.0000000000
     27085      4685  TIP3      H2             -4.4346208976       27.5222310283      -34.9512367733  TIP3      4539            0.0000000000
     27086      4686  TIP3      OH2             1.4567246995       27.0557101268      -34.9674820592  TIP3      4540            0.0000000000
     27087      4686  TIP3      H1              2.1749498057       26.5938244578      -35.4305051520  TIP3      4540            0.0000000000
     27088      4686  TIP3      H2              1.1652737142       26.3890188390      -34.3130984407  TIP3      4540            0.0000000000
     27089      4687  TIP3      OH2             2.4716340789       27.9608097025      -38.4443296984  TIP3      4541            0.0000000000
     27090      4687  TIP3      H1              1.7209320704       28.4279545717      -38.0563822523  TIP3      4541            0.0000000000
     27091      4687  TIP3      H2              2.3859666927       27.0477227223      -38.1016984275  TIP3      4541            0.0000000000
     27092      4688  TIP3      OH2            -7.3520524254       29.0904811563      -41.0569418461  TIP3      4542            0.0000000000
     27093      4688  TIP3      H1             -7.1111463985       29.5208073275      -41.8905763628  TIP3      4542            0.0000000000
     27094      4688  TIP3      H2             -6.8619084935       29.5987189838      -40.3791743621  TIP3      4542            0.0000000000
     27095      4689  TIP3      OH2            -2.5667285835       29.3643058640      -39.1408413925  TIP3      4543            0.0000000000
     27096      4689  TIP3      H1             -2.1224041846       28.8193384212      -38.4620346271  TIP3      4543            0.0000000000
     27097      4689  TIP3      H2             -2.8433695542       30.1231811445      -38.6104242717  TIP3      4543            0.0000000000
     27098      4690  TIP3      OH2            -8.9633400455       27.8197676738      -25.8315205450  TIP3      4544            0.0000000000
     27099      4690  TIP3      H1             -9.3058019912       26.9079975150      -25.7535919503  TIP3      4544            0.0000000000
     27100      4690  TIP3      H2             -8.0650285054       27.7076387725      -25.4525022110  TIP3      4544            0.0000000000
     27101      4691  TIP3      OH2            -6.4070948179       27.2757132908      -24.5950464763  TIP3      4545            0.0000000000
     27102      4691  TIP3      H1             -5.5404592468       27.5131343088      -24.9704511992  TIP3      4545            0.0000000000
     27103      4691  TIP3      H2             -6.2387314878       26.3407576445      -24.3731578383  TIP3      4545            0.0000000000
     27104      4692  TIP3      OH2             1.3840221058       26.5745525722      -24.8260460572  TIP3      4546            0.0000000000
     27105      4692  TIP3      H1              1.3179704784       25.9327031872      -24.0713469204  TIP3      4546            0.0000000000
     27106      4692  TIP3      H2              2.3618609245       26.5835111269      -24.9537424463  TIP3      4546            0.0000000000
     27107      4693  TIP3      OH2            25.3778498671       29.5603598383      -30.4573433087  TIP3      4547            0.0000000000
     27108      4693  TIP3      H1             26.0860230374       30.0699566483      -30.0197141053  TIP3      4547            0.0000000000
     27109      4693  TIP3      H2             25.7587198700       29.4392514040      -31.3527834216  TIP3      4547            0.0000000000
     27110      4694  TIP3      OH2            10.9859969823       29.8029682215      -29.8027176655  TIP3      4548            0.0000000000
     27111      4694  TIP3      H1             10.6028670093       30.0754520892      -30.6448976797  TIP3      4548            0.0000000000
     27112      4694  TIP3      H2             10.1860472931       29.6629228838      -29.2860125616  TIP3      4548            0.0000000000
     27113      4695  TIP3      OH2            21.7577774123      -29.7294195807      -35.1118257853  TIP3      4549            0.0000000000
     27114      4695  TIP3      H1             21.8462199279      -30.1899233929      -34.2590657532  TIP3      4549            0.0000000000
     27115      4695  TIP3      H2             22.6942130216      -29.5239529551      -35.2593003481  TIP3      4549            0.0000000000
     27116      4696  TIP3      OH2            22.5738395076       28.9880388151      -30.2169227227  TIP3      4550            0.0000000000
     27117      4696  TIP3      H1             22.0516396310       29.2877009535      -30.9890953766  TIP3      4550            0.0000000000
     27118      4696  TIP3      H2             23.4746237468       29.3182039913      -30.4365625410  TIP3      4550            0.0000000000
     27119      4697  TIP3      OH2            15.6512376540       26.7410229347      -32.3948567064  TIP3      4551            0.0000000000
     27120      4697  TIP3      H1             15.3954100210       25.9673995075      -32.9229011668  TIP3      4551            0.0000000000
     27121      4697  TIP3      H2             14.7460282880       27.1227757935      -32.2541626109  TIP3      4551            0.0000000000
     27122      4698  TIP3      OH2            24.3350582361       26.8324522789      -39.1746476172  TIP3      4552            0.0000000000
     27123      4698  TIP3      H1             23.5763289863       26.8559433783      -39.7840086755  TIP3      4552            0.0000000000
     27124      4698  TIP3      H2             24.9325910741       27.4496914047      -39.6457445223  TIP3      4552            0.0000000000
     27125      4699  TIP3      OH2            13.1816896616       27.6767242685      -32.1354212406  TIP3      4553            0.0000000000
     27126      4699  TIP3      H1             12.2354320813       27.6311340705      -32.3870336390  TIP3      4553            0.0000000000
     27127      4699  TIP3      H2             13.1609661557       28.3808567195      -31.4578457619  TIP3      4553            0.0000000000
     27128      4700  TIP3      OH2            17.6009702776       27.7106975773      -28.5120951641  TIP3      4554            0.0000000000
     27129      4700  TIP3      H1             18.1242937513       27.2095221345      -27.8469010723  TIP3      4554            0.0000000000
     27130      4700  TIP3      H2             16.6769094014       27.4535195554      -28.3071519579  TIP3      4554            0.0000000000
     27131      4701  TIP3      OH2            17.5264513399      -29.3321811080      -40.9602013142  TIP3      4555            0.0000000000
     27132      4701  TIP3      H1             17.0279555771      -29.8564542427      -40.3019691425  TIP3      4555            0.0000000000
     27133      4701  TIP3      H2             17.7940906781      -30.0082270450      -41.5886956893  TIP3      4555            0.0000000000
     27134      4702  TIP3      OH2            20.2659965095       29.9247391923      -31.7941974078  TIP3      4556            0.0000000000
     27135      4702  TIP3      H1             19.8825736208       29.9257165946      -30.8870556466  TIP3      4556            0.0000000000
     27136      4702  TIP3      H2             19.9437401053       29.0923876597      -32.1553073514  TIP3      4556            0.0000000000
     27137      4703  TIP3      OH2            12.0715218732       29.2589406165      -35.4822901518  TIP3      4557            0.0000000000
     27138      4703  TIP3      H1             11.7878195182       28.3844119526      -35.8187017021  TIP3      4557            0.0000000000
     27139      4703  TIP3      H2             12.8928903681       29.4448559493      -35.9877642414  TIP3      4557            0.0000000000
     27140      4704  TIP3      OH2            19.4837543184       29.5979267696      -29.1694570891  TIP3      4558            0.0000000000
     27141      4704  TIP3      H1             20.1693232507       29.5032695502      -28.4925690951  TIP3      4558            0.0000000000
     27142      4704  TIP3      H2             18.8002446044       28.9348228268      -28.9202771496  TIP3      4558            0.0000000000
     27143      4705  TIP3      OH2            19.3145821461       29.7710928515      -37.6987305061  TIP3      4559            0.0000000000
     27144      4705  TIP3      H1             19.0241497257       30.3629270340      -38.4146784827  TIP3      4559            0.0000000000
     27145      4705  TIP3      H2             19.6114841402       30.3970495951      -37.0127827066  TIP3      4559            0.0000000000
     27146      4706  TIP3      OH2            17.2551334819       28.2838902231      -36.6903525648  TIP3      4560            0.0000000000
     27147      4706  TIP3      H1             17.1168648739       28.6822605485      -35.8152996065  TIP3      4560            0.0000000000
     27148      4706  TIP3      H2             18.0596695233       28.7682846042      -36.9883268811  TIP3      4560            0.0000000000
     27149      4707  TIP3      OH2            13.5161481835       29.8158783998      -39.6123544817  TIP3      4561            0.0000000000
     27150      4707  TIP3      H1             13.1164093036       30.5611697159      -39.1465471361  TIP3      4561            0.0000000000
     27151      4707  TIP3      H2             14.3284517353       29.6019071076      -39.1295462894  TIP3      4561            0.0000000000
     27152      4708  TIP3      OH2            10.5578912376       27.4936786803      -32.5349472928  TIP3      4562            0.0000000000
     27153      4708  TIP3      H1             10.5979668601       27.3516575853      -33.5092534341  TIP3      4562            0.0000000000
     27154      4708  TIP3      H2             10.2565824994       26.6024232972      -32.2334611349  TIP3      4562            0.0000000000
     27155      4709  TIP3      OH2            13.7035733277       29.4544509552      -30.0411759821  TIP3      4563            0.0000000000
     27156      4709  TIP3      H1             13.8749263241       30.2321684550      -30.6200839230  TIP3      4563            0.0000000000
     27157      4709  TIP3      H2             12.7650972041       29.6077478761      -29.7569007311  TIP3      4563            0.0000000000
     27158      4710  TIP3      OH2            14.9010880156       27.4806238050      -28.3977901826  TIP3      4564            0.0000000000
     27159      4710  TIP3      H1             14.6019318342       28.2418979663      -28.9311502981  TIP3      4564            0.0000000000
     27160      4710  TIP3      H2             14.3653139661       26.7849598046      -28.8191447425  TIP3      4564            0.0000000000
     27161      4711  TIP3      OH2            20.4748509813       28.6072971417      -23.3258495959  TIP3      4565            0.0000000000
     27162      4711  TIP3      H1             20.6071810717       27.7534685586      -23.7825044861  TIP3      4565            0.0000000000
     27163      4711  TIP3      H2             19.5376695444       28.4944718512      -23.0883292014  TIP3      4565            0.0000000000
     27164      4712  TIP3      OH2            15.5574585256       26.4977200799      -25.8739636453  TIP3      4566            0.0000000000
     27165      4712  TIP3      H1             16.1577762063       25.7545961648      -26.0791390117  TIP3      4566            0.0000000000
     27166      4712  TIP3      H2             15.2927399915       26.7828493636      -26.7745037668  TIP3      4566            0.0000000000
     27167      4713  TIP3      OH2            14.5106379495       28.3032703861      -24.2886030198  TIP3      4567            0.0000000000
     27168      4713  TIP3      H1             15.0633531053       27.7300300807      -24.8782823645  TIP3      4567            0.0000000000
     27169      4713  TIP3      H2             14.7444086574       29.2016371242      -24.6106537550  TIP3      4567            0.0000000000
     27170      4714  TIP3      OH2            26.2212271321       26.8112627698      -24.0099958434  TIP3      4568            0.0000000000
     27171      4714  TIP3      H1             26.9054257520       26.2826353609      -24.4760057486  TIP3      4568            0.0000000000
     27172      4714  TIP3      H2             26.1831832834       27.6013429982      -24.5788111348  TIP3      4568            0.0000000000
     27173      4715  TIP3      OH2            23.2620925807       28.7366743703      -37.0867077193  TIP3      4569            0.0000000000
     27174      4715  TIP3      H1             23.7497794333       27.9932699058      -36.7081011589  TIP3      4569            0.0000000000
     27175      4715  TIP3      H2             22.6408264197       28.3187856747      -37.7248731338  TIP3      4569            0.0000000000
     27176      4716  TIP3      OH2             8.8868346767       29.6498670952      -32.4478579349  TIP3      4570            0.0000000000
     27177      4716  TIP3      H1              9.3444163909       28.7782761005      -32.4492266592  TIP3      4570            0.0000000000
     27178      4716  TIP3      H2              9.6342958644       30.2467570784      -32.6509417866  TIP3      4570            0.0000000000
     27179      4717  TIP3      OH2            25.4655705034       29.2102636021      -25.3249103620  TIP3      4571            0.0000000000
     27180      4717  TIP3      H1             24.8161547900       29.9157114194      -25.4344035301  TIP3      4571            0.0000000000
     27181      4717  TIP3      H2             25.1493835480       28.5838164331      -26.0037274595  TIP3      4571            0.0000000000
     27182      4718  TIP3      OH2            25.5202569001       28.6896597906      -40.8650376478  TIP3      4572            0.0000000000
     27183      4718  TIP3      H1             25.2524324334       29.0667474784      -41.7202044977  TIP3      4572            0.0000000000
     27184      4718  TIP3      H2             25.2708993900       29.4409665573      -40.2792366566  TIP3      4572            0.0000000000
     27185      4719  TIP3      OH2             7.9310355462       29.0559367111      -37.5669313561  TIP3      4573            0.0000000000
     27186      4719  TIP3      H1              7.0670485183       29.4774343389      -37.6735989518  TIP3      4573            0.0000000000
     27187      4719  TIP3      H2              8.3094217520       29.2373707105      -38.4447754687  TIP3      4573            0.0000000000
     27188      4720  TIP3      OH2             8.0125526422       27.7649952600      -29.1631653972  TIP3      4574            0.0000000000
     27189      4720  TIP3      H1              7.5323119881       27.2651091902      -28.4840534894  TIP3      4574            0.0000000000
     27190      4720  TIP3      H2              7.2917885227       28.2836634310      -29.5594884570  TIP3      4574            0.0000000000
     27191      4721  TIP3      OH2            24.4999238593       27.0664232665      -27.4833807520  TIP3      4575            0.0000000000
     27192      4721  TIP3      H1             23.9728353718       27.2431989203      -28.2829449144  TIP3      4575            0.0000000000
     27193      4721  TIP3      H2             24.7938979984       26.1416347047      -27.6934867588  TIP3      4575            0.0000000000
     27194      4722  TIP3      OH2            17.7305693264       28.2100774410      -33.6721266769  TIP3      4576            0.0000000000
     27195      4722  TIP3      H1             17.1251419679       27.5814466030      -33.2423995448  TIP3      4576            0.0000000000
     27196      4722  TIP3      H2             18.5553501971       27.6967364314      -33.7612217411  TIP3      4576            0.0000000000
     27197      4723  TIP3      OH2            22.9203420786       26.8926995513      -33.2876413036  TIP3      4577            0.0000000000
     27198      4723  TIP3      H1             23.7171586566       27.1062633879      -33.8250738348  TIP3      4577            0.0000000000
     27199      4723  TIP3      H2             22.2316810967       27.4425335200      -33.7224402639  TIP3      4577            0.0000000000
     27200      4724  TIP3      OH2            24.8123438237       27.7477989367      -35.0364102415  TIP3      4578            0.0000000000
     27201      4724  TIP3      H1             25.6939268863       27.5765679098      -35.4205786722  TIP3      4578            0.0000000000
     27202      4724  TIP3      H2             25.0002632436       28.4694658815      -34.4104715685  TIP3      4578            0.0000000000
     27203      4725  TIP3      OH2            10.3627127455       27.0982226879      -35.2093003787  TIP3      4579            0.0000000000
     27204      4725  TIP3      H1              9.7287395348       27.2514447016      -35.9387381001  TIP3      4579            0.0000000000
     27205      4725  TIP3      H2             10.6012061861       26.1496768675      -35.3115814043  TIP3      4579            0.0000000000
     27206      4726  TIP3      OH2             9.6206584779       27.3559575342      -39.9522524817  TIP3      4580            0.0000000000
     27207      4726  TIP3      H1             10.1098716153       28.1641412519      -40.2391559443  TIP3      4580            0.0000000000
     27208      4726  TIP3      H2              8.7208608229       27.7134105062      -39.9499508012  TIP3      4580            0.0000000000
     27209      4727  TIP3      OH2            14.6962871860       26.6235849858      -35.5289940993  TIP3      4581            0.0000000000
     27210      4727  TIP3      H1             15.6315652175       26.6318188620      -35.7824019591  TIP3      4581            0.0000000000
     27211      4727  TIP3      H2             14.5891079227       27.4611388653      -35.0554243710  TIP3      4581            0.0000000000
     27212      4728  TIP3      OH2            20.3245892463       27.4510020235      -34.7081912557  TIP3      4582            0.0000000000
     27213      4728  TIP3      H1             20.1397624527       27.3390631415      -35.6509362692  TIP3      4582            0.0000000000
     27214      4728  TIP3      H2             20.1268955932       26.5542365175      -34.3480277342  TIP3      4582            0.0000000000
     27215      4729  TIP3      OH2            21.2743508647       27.7580129530      -38.4919449354  TIP3      4583            0.0000000000
     27216      4729  TIP3      H1             20.4906604854       28.2922421609      -38.2871932466  TIP3      4583            0.0000000000
     27217      4729  TIP3      H2             20.9494699602       26.8333652661      -38.4101092483  TIP3      4583            0.0000000000
     27218      4730  TIP3      OH2            11.2508813734       29.2318890124      -41.0011647678  TIP3      4584            0.0000000000
     27219      4730  TIP3      H1             11.4331312196       28.8461551858      -41.8592254653  TIP3      4584            0.0000000000
     27220      4730  TIP3      H2             12.1381703746       29.4285990512      -40.6300061237  TIP3      4584            0.0000000000
     27221      4731  TIP3      OH2            16.1878727823       29.5603582220      -38.9762318920  TIP3      4585            0.0000000000
     27222      4731  TIP3      H1             16.3042479050       29.0283199645      -38.1586083303  TIP3      4585            0.0000000000
     27223      4731  TIP3      H2             16.0800913827       30.4444295453      -38.5913713043  TIP3      4585            0.0000000000
     27224      4732  TIP3      OH2             9.8383608439       27.8263578516      -25.9273211610  TIP3      4586            0.0000000000
     27225      4732  TIP3      H1              9.2781210804       27.0442359219      -25.7601688783  TIP3      4586            0.0000000000
     27226      4732  TIP3      H2             10.7223296026       27.4951716917      -25.6558813274  TIP3      4586            0.0000000000
     27227      4733  TIP3      OH2            12.1582947188       27.2090173816      -24.8515564913  TIP3      4587            0.0000000000
     27228      4733  TIP3      H1             13.0796093444       27.5123836142      -24.9925857679  TIP3      4587            0.0000000000
     27229      4733  TIP3      H2             12.3282825336       26.3305237530      -24.4665805106  TIP3      4587            0.0000000000
     27230      4734  TIP3      OH2            20.2747520795       26.2736242997      -24.6124307910  TIP3      4588            0.0000000000
     27231      4734  TIP3      H1             19.9766943576       25.4238502116      -24.2399150403  TIP3      4588            0.0000000000
     27232      4734  TIP3      H2             21.2486540242       26.1692022494      -24.6470735699  TIP3      4588            0.0000000000
     27233      4735  TIP3      OH2            29.1899332600       27.2937711368      -32.3284204449  TIP3      4589            0.0000000000
     27234      4735  TIP3      H1             29.2023948475       27.4254098441      -33.3004082342  TIP3      4589            0.0000000000
     27235      4735  TIP3      H2             28.9726077717       26.3412193033      -32.2767654338  TIP3      4589            0.0000000000
     27236      4736  TIP3      OH2            26.9854947679       28.9016135386      -32.6252468370  TIP3      4590            0.0000000000
     27237      4736  TIP3      H1             27.7376912432       28.2717351557      -32.5467410883  TIP3      4590            0.0000000000
     27238      4736  TIP3      H2             27.4931888463       29.7336232467      -32.5247138606  TIP3      4590            0.0000000000
     27239      4737  TIP3      OH2            26.6478790520       29.0188577775      -37.4852179041  TIP3      4591            0.0000000000
     27240      4737  TIP3      H1             25.6926926968       28.8761365763      -37.3805770021  TIP3      4591            0.0000000000
     27241      4737  TIP3      H2             26.6288435134       29.5914031487      -38.2746486565  TIP3      4591            0.0000000000
     27242      4738  TIP3      OH2            26.9260934631       27.5498377547      -29.4238512306  TIP3      4592            0.0000000000
     27243      4738  TIP3      H1             26.2087551904       27.3700696072      -28.7952981548  TIP3      4592            0.0000000000
     27244      4738  TIP3      H2             26.4681354397       28.0799268287      -30.1016366225  TIP3      4592            0.0000000000
     27245      4739  TIP3      OH2            28.6922332887       27.8147589450      -35.1535350032  TIP3      4593            0.0000000000
     27246      4739  TIP3      H1             28.0215329075       28.0495958393      -35.8153884770  TIP3      4593            0.0000000000
     27247      4739  TIP3      H2             29.4847753716       28.1222213463      -35.6187827286  TIP3      4593            0.0000000000
     27248      4740  TIP3      OH2            28.1585260503       27.1560127561      -39.9806911084  TIP3      4594            0.0000000000
     27249      4740  TIP3      H1             28.6849791954       27.7817850502      -40.5175539973  TIP3      4594            0.0000000000
     27250      4740  TIP3      H2             27.4684203097       27.7563190576      -39.6699909959  TIP3      4594            0.0000000000
     27251      4741  TIP3      OH2           -30.2483089210       28.9717107232      -40.9206971758  TIP3      4595            0.0000000000
     27252      4741  TIP3      H1            -29.5987425831       28.2851004522      -41.1782855817  TIP3      4595            0.0000000000
     27253      4741  TIP3      H2            -29.6269112127       29.6897824570      -40.6560059651  TIP3      4595            0.0000000000
     27254      4742  TIP3      OH2            29.2508630224       27.9103062013      -26.1870116065  TIP3      4596            0.0000000000
     27255      4742  TIP3      H1             29.2251983891       26.9614400409      -25.9844479337  TIP3      4596            0.0000000000
     27256      4742  TIP3      H2             30.1972528129       28.1191653860      -26.0094555529  TIP3      4596            0.0000000000
     27257      4743  TIP3      OH2           -19.7874998991      -22.3162896402      -22.8307097879  TIP3      4597            0.0000000000
     27258      4743  TIP3      H1            -19.6719602784      -22.2818806719      -21.8679502702  TIP3      4597            0.0000000000
     27259      4743  TIP3      H2            -18.9382787378      -22.7448327857      -23.1239620074  TIP3      4597            0.0000000000
     27260      4744  TIP3      OH2           -13.8974874535      -29.0654428198      -20.8570541533  TIP3      4598            0.0000000000
     27261      4744  TIP3      H1            -14.3580237302      -28.4997885198      -20.2166400361  TIP3      4598            0.0000000000
     27262      4744  TIP3      H2            -13.1863878822      -28.4702523060      -21.1539849411  TIP3      4598            0.0000000000
     27263      4745  TIP3      OH2           -12.3704635845      -15.0983567592      -23.0159395650  TIP3      4599            0.0000000000
     27264      4745  TIP3      H1            -12.2925884099      -14.5349119980      -22.2458400965  TIP3      4599            0.0000000000
     27265      4745  TIP3      H2            -11.6202424469      -15.7192836845      -22.8663787275  TIP3      4599            0.0000000000
     27266      4746  TIP3      OH2           -24.1828604818      -26.2279112507      -23.1666539564  TIP3      4600            0.0000000000
     27267      4746  TIP3      H1            -24.3819944509      -25.9865796765      -22.2338898745  TIP3      4600            0.0000000000
     27268      4746  TIP3      H2            -24.4782776948      -25.4259634429      -23.6447530764  TIP3      4600            0.0000000000
     27269      4747  TIP3      OH2           -28.9971461766      -25.7105496993      -21.3446094364  TIP3      4601            0.0000000000
     27270      4747  TIP3      H1            -28.0866565900      -25.8047720374      -21.6611203866  TIP3      4601            0.0000000000
     27271      4747  TIP3      H2            -28.8130614074      -25.6214420151      -20.3739824202  TIP3      4601            0.0000000000
     27272      4748  TIP3      OH2           -25.2082233061      -23.1693847149      -22.5098624159  TIP3      4602            0.0000000000
     27273      4748  TIP3      H1            -24.8694966716      -23.3025059904      -23.4127495079  TIP3      4602            0.0000000000
     27274      4748  TIP3      H2            -24.4347415546      -22.8368344380      -22.0265844109  TIP3      4602            0.0000000000
     27275      4749  TIP3      OH2           -20.0613061272      -16.6448789927      -21.7370877501  TIP3      4603            0.0000000000
     27276      4749  TIP3      H1            -19.6965713180      -15.7665974157      -21.5133165498  TIP3      4603            0.0000000000
     27277      4749  TIP3      H2            -19.5398083361      -17.2442743142      -21.1832246778  TIP3      4603            0.0000000000
     27278      4750  TIP3      OH2           -28.5591523019      -20.4827236729      -22.1597139765  TIP3      4604            0.0000000000
     27279      4750  TIP3      H1            -28.1888815778      -21.1796512024      -21.5902801525  TIP3      4604            0.0000000000
     27280      4750  TIP3      H2            -29.1111886698      -20.0265958518      -21.4993566308  TIP3      4604            0.0000000000
     27281      4751  TIP3      OH2           -22.3842526320      -15.6681716379      -23.8097190542  TIP3      4605            0.0000000000
     27282      4751  TIP3      H1            -22.7446608784      -16.2584393198      -24.4919040471  TIP3      4605            0.0000000000
     27283      4751  TIP3      H2            -22.0126505292      -16.2981182709      -23.1731181207  TIP3      4605            0.0000000000
     27284      4752  TIP3      OH2           -28.2954226096      -23.4149180399      -23.3303800877  TIP3      4606            0.0000000000
     27285      4752  TIP3      H1            -27.3732890000      -23.3913267054      -23.0322192746  TIP3      4606            0.0000000000
     27286      4752  TIP3      H2            -28.7732009029      -23.4609057771      -22.4847133513  TIP3      4606            0.0000000000
     27287      4753  TIP3      OH2           -20.2057064258      -13.6184818664      -23.7263206612  TIP3      4607            0.0000000000
     27288      4753  TIP3      H1            -20.7252184831      -14.4424711491      -23.6968496458  TIP3      4607            0.0000000000
     27289      4753  TIP3      H2            -19.3546534358      -13.9349979961      -24.0970668459  TIP3      4607            0.0000000000
     27290      4754  TIP3      OH2           -15.6531891810      -14.7049055877      -23.7417149256  TIP3      4608            0.0000000000
     27291      4754  TIP3      H1            -15.4334282484      -14.7153038221      -22.7999437756  TIP3      4608            0.0000000000
     27292      4754  TIP3      H2            -14.7845907785      -14.5573677349      -24.1785001316  TIP3      4608            0.0000000000
     27293      4755  TIP3      OH2           -24.7478217169      -18.5983930801      -23.7853539904  TIP3      4609            0.0000000000
     27294      4755  TIP3      H1            -24.6227882668      -19.3666818817      -23.2213542773  TIP3      4609            0.0000000000
     27295      4755  TIP3      H2            -23.9524961738      -18.6708923649      -24.3631466553  TIP3      4609            0.0000000000
     27296      4756  TIP3      OH2           -19.3086770466      -16.9711903590      -24.3817014679  TIP3      4610            0.0000000000
     27297      4756  TIP3      H1            -19.8723508354      -17.1013038470      -23.5953116147  TIP3      4610            0.0000000000
     27298      4756  TIP3      H2            -19.0390842160      -17.9077910029      -24.5499975463  TIP3      4610            0.0000000000
     27299      4757  TIP3      OH2           -22.4930200809      -21.8848753764      -23.3110465718  TIP3      4611            0.0000000000
     27300      4757  TIP3      H1            -22.5148325812      -21.4833314770      -24.2077706825  TIP3      4611            0.0000000000
     27301      4757  TIP3      H2            -21.5401933810      -22.1045542424      -23.2483751308  TIP3      4611            0.0000000000
     27302      4758  TIP3      OH2           -12.5470211684      -19.6365960981      -23.9737644387  TIP3      4612            0.0000000000
     27303      4758  TIP3      H1            -13.3946203920      -19.9160452399      -23.5692245597  TIP3      4612            0.0000000000
     27304      4758  TIP3      H2            -12.6761575762      -18.6545820983      -23.9140552263  TIP3      4612            0.0000000000
     27305      4759  TIP3      OH2           -29.6609615592      -16.1693069798      -22.6068925575  TIP3      4613            0.0000000000
     27306      4759  TIP3      H1            -29.3567231106      -16.4100711617      -21.7147138348  TIP3      4613            0.0000000000
     27307      4759  TIP3      H2            -29.5724908816      -16.9988835869      -23.1164236960  TIP3      4613            0.0000000000
     27308      4760  TIP3      OH2           -13.2688895997      -23.9175572327      -23.1556008076  TIP3      4614            0.0000000000
     27309      4760  TIP3      H1            -13.6012739623      -23.0181687673      -23.2898623603  TIP3      4614            0.0000000000
     27310      4760  TIP3      H2            -13.8087458539      -24.4855084580      -23.7468977323  TIP3      4614            0.0000000000
     27311      4761  TIP3      OH2           -14.3826796144      -26.3370385276      -23.8022046446  TIP3      4615            0.0000000000
     27312      4761  TIP3      H1            -14.2928929528      -26.5956412163      -22.8726882804  TIP3      4615            0.0000000000
     27313      4761  TIP3      H2            -14.7023785933      -27.1497161402      -24.2269535568  TIP3      4615            0.0000000000
     27314      4762  TIP3      OH2           -12.2825336030      -26.9234353619      -21.8909730576  TIP3      4616            0.0000000000
     27315      4762  TIP3      H1            -11.8709978697      -27.6914990442      -22.3375867299  TIP3      4616            0.0000000000
     27316      4762  TIP3      H2            -12.2468060069      -26.2596116655      -22.5962412061  TIP3      4616            0.0000000000
     27317      4763  TIP3      OH2           -26.8026978867      -27.5462745132      -22.3295008185  TIP3      4617            0.0000000000
     27318      4763  TIP3      H1            -25.9794590635      -27.5483621320      -22.8362874890  TIP3      4617            0.0000000000
     27319      4763  TIP3      H2            -26.4527269760      -27.2621388400      -21.4511582179  TIP3      4617            0.0000000000
     27320      4764  TIP3      OH2           -26.4707742397      -12.8700995519      -23.3698858708  TIP3      4618            0.0000000000
     27321      4764  TIP3      H1            -26.3890968958      -13.4673569175      -22.6158407564  TIP3      4618            0.0000000000
     27322      4764  TIP3      H2            -25.6526472815      -13.0832566616      -23.8681892576  TIP3      4618            0.0000000000
     27323      4765  TIP3      OH2             4.5343804735      -27.3819405329      -19.8401396146  TIP3      4619            0.0000000000
     27324      4765  TIP3      H1              4.3033531276      -28.2435327515      -19.4595644430  TIP3      4619            0.0000000000
     27325      4765  TIP3      H2              5.1289788559      -27.5841275685      -20.5920514162  TIP3      4619            0.0000000000
     27326      4766  TIP3      OH2             1.8608747686      -12.7171064525      -21.9442096171  TIP3      4620            0.0000000000
     27327      4766  TIP3      H1              1.1518471703      -12.7201320695      -22.6128800277  TIP3      4620            0.0000000000
     27328      4766  TIP3      H2              1.3723456806      -13.0635338049      -21.2007109130  TIP3      4620            0.0000000000
     27329      4767  TIP3      OH2             3.0602639504      -18.8932261669      -22.3800151844  TIP3      4621            0.0000000000
     27330      4767  TIP3      H1              2.6934301041      -19.4461270582      -21.6520888343  TIP3      4621            0.0000000000
     27331      4767  TIP3      H2              3.8779746068      -19.3969711764      -22.5338574137  TIP3      4621            0.0000000000
     27332      4768  TIP3      OH2            -1.0329408245      -26.4988120423      -22.4473346279  TIP3      4622            0.0000000000
     27333      4768  TIP3      H1             -1.3837621750      -25.9319451889      -21.7441889386  TIP3      4622            0.0000000000
     27334      4768  TIP3      H2             -1.7756621957      -27.0808287247      -22.6799264968  TIP3      4622            0.0000000000
     27335      4769  TIP3      OH2            -4.8691684320      -25.9440927751      -22.9474113222  TIP3      4623            0.0000000000
     27336      4769  TIP3      H1             -5.1917202830      -26.0905006210      -22.0362396231  TIP3      4623            0.0000000000
     27337      4769  TIP3      H2             -5.4937839591      -25.2781414457      -23.2871684221  TIP3      4623            0.0000000000
     27338      4770  TIP3      OH2            -6.5205689053      -23.1847358484      -22.3690676276  TIP3      4624            0.0000000000
     27339      4770  TIP3      H1             -6.5404964206      -23.4598045152      -23.3010434185  TIP3      4624            0.0000000000
     27340      4770  TIP3      H2             -6.0500693046      -22.3460340298      -22.4256185420  TIP3      4624            0.0000000000
     27341      4771  TIP3      OH2            -0.7775638353      -16.9468045437      -21.3859269436  TIP3      4625            0.0000000000
     27342      4771  TIP3      H1             -1.0697728355      -16.1174685829      -20.9629311652  TIP3      4625            0.0000000000
     27343      4771  TIP3      H2             -1.6003246609      -17.4451512212      -21.4198390081  TIP3      4625            0.0000000000
     27344      4772  TIP3      OH2             6.6864097542      -12.8826748813      -22.1548889274  TIP3      4626            0.0000000000
     27345      4772  TIP3      H1              7.5625178082      -12.4915463479      -22.1923223874  TIP3      4626            0.0000000000
     27346      4772  TIP3      H2              6.2449239438      -12.2708651242      -21.5382555554  TIP3      4626            0.0000000000
     27347      4773  TIP3      OH2            -2.9712564931      -15.9271739576      -23.3716459298  TIP3      4627            0.0000000000
     27348      4773  TIP3      H1             -2.9495552588      -16.5202323082      -24.1414217069  TIP3      4627            0.0000000000
     27349      4773  TIP3      H2             -3.6444330375      -16.3870652289      -22.8566663665  TIP3      4627            0.0000000000
     27350      4774  TIP3      OH2            -1.7942950306      -14.5384883272      -20.4108132469  TIP3      4628            0.0000000000
     27351      4774  TIP3      H1             -2.6535473010      -14.0910266568      -20.3926284653  TIP3      4628            0.0000000000
     27352      4774  TIP3      H2             -1.4676035631      -14.1296067597      -21.2427091262  TIP3      4628            0.0000000000
     27353      4775  TIP3      OH2            -1.0233787734      -13.9847799035      -22.9755774226  TIP3      4629            0.0000000000
     27354      4775  TIP3      H1             -1.7317604172      -14.6304799166      -23.2334808628  TIP3      4629            0.0000000000
     27355      4775  TIP3      H2             -0.4248489279      -14.0470292100      -23.7488656924  TIP3      4629            0.0000000000
     27356      4776  TIP3      OH2            -0.3411163388      -16.9103807039      -24.1344912355  TIP3      4630            0.0000000000
     27357      4776  TIP3      H1             -0.4121991600      -17.0079713165      -23.1597386347  TIP3      4630            0.0000000000
     27358      4776  TIP3      H2             -0.3592551162      -17.8636715621      -24.3716500940  TIP3      4630            0.0000000000
     27359      4777  TIP3      OH2             5.6703103536      -19.9363285425      -23.5314739644  TIP3      4631            0.0000000000
     27360      4777  TIP3      H1              5.4061062469      -20.2342651566      -24.4251662095  TIP3      4631            0.0000000000
     27361      4777  TIP3      H2              5.9094410248      -18.9987233621      -23.6862831669  TIP3      4631            0.0000000000
     27362      4778  TIP3      OH2            -3.7764957774      -11.7942472151      -21.9432866985  TIP3      4632            0.0000000000
     27363      4778  TIP3      H1             -4.5418306192      -11.2430112581      -21.7330757364  TIP3      4632            0.0000000000
     27364      4778  TIP3      H2             -3.3533579051      -11.2349459873      -22.6358084455  TIP3      4632            0.0000000000
     27365      4779  TIP3      OH2           -10.1144004052      -16.6440160307      -22.5458593029  TIP3      4633            0.0000000000
     27366      4779  TIP3      H1             -9.2622610543      -16.2612725645      -22.3074645763  TIP3      4633            0.0000000000
     27367      4779  TIP3      H2             -9.9568805750      -17.5645555059      -22.2955287817  TIP3      4633            0.0000000000
     27368      4780  TIP3      OH2             5.5495689989      -23.1326258398      -22.9705362859  TIP3      4634            0.0000000000
     27369      4780  TIP3      H1              5.5382224850      -22.4581000801      -23.6616936498  TIP3      4634            0.0000000000
     27370      4780  TIP3      H2              5.1186356568      -23.8706986996      -23.4289453370  TIP3      4634            0.0000000000
     27371      4781  TIP3      OH2             5.0428432427      -25.8978411028      -23.8774477104  TIP3      4635            0.0000000000
     27372      4781  TIP3      H1              5.2604796550      -26.5249345718      -23.1619108278  TIP3      4635            0.0000000000
     27373      4781  TIP3      H2              4.0877976502      -26.1154297637      -23.9936908931  TIP3      4635            0.0000000000
     27374      4782  TIP3      OH2             6.1783008334      -27.5314579653      -22.0302384305  TIP3      4636            0.0000000000
     27375      4782  TIP3      H1              6.7496702025      -28.1590596633      -22.5438325927  TIP3      4636            0.0000000000
     27376      4782  TIP3      H2              6.6455282230      -26.6950694873      -22.1661235135  TIP3      4636            0.0000000000
     27377      4783  TIP3      OH2           -10.2085345889      -29.5788096782      -20.6772210191  TIP3      4637            0.0000000000
     27378      4783  TIP3      H1             -9.5107512562      -29.6655004946      -21.3463992027  TIP3      4637            0.0000000000
     27379      4783  TIP3      H2            -10.2044078174      -28.6244182346      -20.5404085715  TIP3      4637            0.0000000000
     27380      4784  TIP3      OH2            -8.2833335242      -27.6270677377      -22.5441667864  TIP3      4638            0.0000000000
     27381      4784  TIP3      H1             -7.6621271376      -28.2077727668      -23.0122263095  TIP3      4638            0.0000000000
     27382      4784  TIP3      H2             -7.8124299165      -27.4307171507      -21.7162017626  TIP3      4638            0.0000000000
     27383      4785  TIP3      OH2            -8.9127472376      -11.9361559958      -23.1723443577  TIP3      4639            0.0000000000
     27384      4785  TIP3      H1             -9.3234201258      -11.5600260826      -22.3480233938  TIP3      4639            0.0000000000
     27385      4785  TIP3      H2             -8.2388304532      -12.4969402594      -22.7507298319  TIP3      4639            0.0000000000
     27386      4786  TIP3      OH2            24.7633834186      -15.4892023107      -22.8295197777  TIP3      4640            0.0000000000
     27387      4786  TIP3      H1             24.9896982064      -14.7289576928      -22.2553488840  TIP3      4640            0.0000000000
     27388      4786  TIP3      H2             25.6673191652      -15.8244624583      -23.0236946882  TIP3      4640            0.0000000000
     27389      4787  TIP3      OH2            20.4011836966      -12.5670092085      -22.2194387181  TIP3      4641            0.0000000000
     27390      4787  TIP3      H1             20.8556669679      -13.3587907897      -22.5562406157  TIP3      4641            0.0000000000
     27391      4787  TIP3      H2             21.0129477140      -12.2181051117      -21.5329344042  TIP3      4641            0.0000000000
     27392      4788  TIP3      OH2            17.6793181959      -26.6371415483      -22.8472055236  TIP3      4642            0.0000000000
     27393      4788  TIP3      H1             17.5931677327      -26.7527035393      -21.8723515892  TIP3      4642            0.0000000000
     27394      4788  TIP3      H2             17.0547887464      -27.3493384930      -23.1041288201  TIP3      4642            0.0000000000
     27395      4789  TIP3      OH2            13.7538377788      -26.1930009757      -23.1025214392  TIP3      4643            0.0000000000
     27396      4789  TIP3      H1             13.3471549276      -26.6554119328      -22.3411687852  TIP3      4643            0.0000000000
     27397      4789  TIP3      H2             13.1388469350      -25.4439104166      -23.2444167697  TIP3      4643            0.0000000000
     27398      4790  TIP3      OH2            12.5874697247      -23.0582959644      -22.5972151054  TIP3      4644            0.0000000000
     27399      4790  TIP3      H1             12.6894360782      -23.5173507595      -23.4521746272  TIP3      4644            0.0000000000
     27400      4790  TIP3      H2             13.4767335473      -22.6957276842      -22.4440378268  TIP3      4644            0.0000000000
     27401      4791  TIP3      OH2            25.5596391438      -24.1053309467      -20.4483701755  TIP3      4645            0.0000000000
     27402      4791  TIP3      H1             25.7856657654      -24.5938230819      -21.2464403848  TIP3      4645            0.0000000000
     27403      4791  TIP3      H2             26.0482690317      -24.6318670895      -19.7851066034  TIP3      4645            0.0000000000
     27404      4792  TIP3      OH2            25.4545126965      -13.0337277216      -21.5143305062  TIP3      4646            0.0000000000
     27405      4792  TIP3      H1             26.1633682645      -12.4092940045      -21.7442108032  TIP3      4646            0.0000000000
     27406      4792  TIP3      H2             24.7594446054      -12.4933979487      -21.0992799863  TIP3      4646            0.0000000000
     27407      4793  TIP3      OH2            15.7106964423      -15.9789190389      -23.7556899911  TIP3      4647            0.0000000000
     27408      4793  TIP3      H1             15.0774239554      -16.2205141452      -24.4534944349  TIP3      4647            0.0000000000
     27409      4793  TIP3      H2             15.2417276446      -16.2209861040      -22.9392493846  TIP3      4647            0.0000000000
     27410      4794  TIP3      OH2            10.5064361219      -19.1491082877      -20.5232143118  TIP3      4648            0.0000000000
     27411      4794  TIP3      H1             10.6132196663      -19.6633086085      -21.3302744381  TIP3      4648            0.0000000000
     27412      4794  TIP3      H2             11.3533711559      -19.3266414844      -20.0774740241  TIP3      4648            0.0000000000
     27413      4795  TIP3      OH2            12.5622290086      -27.4897224461      -20.7875280970  TIP3      4649            0.0000000000
     27414      4795  TIP3      H1             12.2170970104      -27.0954051413      -19.9596637919  TIP3      4649            0.0000000000
     27415      4795  TIP3      H2             13.4441903950      -27.7956535495      -20.4925143680  TIP3      4649            0.0000000000
     27416      4796  TIP3      OH2            17.0933052148      -13.6889891902      -23.8440636619  TIP3      4650            0.0000000000
     27417      4796  TIP3      H1             16.6774749144      -14.5315251524      -23.5683211669  TIP3      4650            0.0000000000
     27418      4796  TIP3      H2             18.0301559092      -13.9606586749      -23.8769365314  TIP3      4650            0.0000000000
     27419      4797  TIP3      OH2            21.8785292513      -14.3654385239      -23.5026458344  TIP3      4651            0.0000000000
     27420      4797  TIP3      H1             22.6238347271      -14.7413609281      -23.0062538894  TIP3      4651            0.0000000000
     27421      4797  TIP3      H2             22.3594870687      -14.2537996346      -24.3561640695  TIP3      4651            0.0000000000
     27422      4798  TIP3      OH2            12.7187840340      -18.8041267714      -23.8007484106  TIP3      4652            0.0000000000
     27423      4798  TIP3      H1             12.9808347011      -19.0217922339      -22.8908234413  TIP3      4652            0.0000000000
     27424      4798  TIP3      H2             13.5141378932      -19.0701042821      -24.2949039388  TIP3      4652            0.0000000000
     27425      4799  TIP3      OH2            18.3551550408      -16.8505032666      -23.5400312922  TIP3      4653            0.0000000000
     27426      4799  TIP3      H1             17.3849918759      -16.7152974567      -23.5610657524  TIP3      4653            0.0000000000
     27427      4799  TIP3      H2             18.4125690742      -17.7969484444      -23.7941070605  TIP3      4653            0.0000000000
     27428      4800  TIP3      OH2            13.7859512892      -20.0617188504      -21.1358370849  TIP3      4654            0.0000000000
     27429      4800  TIP3      H1             14.1356932863      -19.9081594105      -20.2392819315  TIP3      4654            0.0000000000
     27430      4800  TIP3      H2             14.3223435589      -20.8103038640      -21.4335536959  TIP3      4654            0.0000000000
     27431      4801  TIP3      OH2            15.1808068985      -21.9120776977      -23.0627008447  TIP3      4655            0.0000000000
     27432      4801  TIP3      H1             14.8071952183      -22.1374548193      -23.9297087120  TIP3      4655            0.0000000000
     27433      4801  TIP3      H2             16.0184105926      -21.5215451771      -23.3461199085  TIP3      4655            0.0000000000
     27434      4802  TIP3      OH2            24.6416487495      -19.6790926340      -23.1510988798  TIP3      4656            0.0000000000
     27435      4802  TIP3      H1             24.2724829416      -20.4431019220      -23.6248549564  TIP3      4656            0.0000000000
     27436      4802  TIP3      H2             24.1967854569      -18.9301416845      -23.6057427264  TIP3      4656            0.0000000000
     27437      4803  TIP3      OH2            14.6585503765      -11.0923855008      -22.4832769531  TIP3      4657            0.0000000000
     27438      4803  TIP3      H1             15.2530836495      -11.4005321699      -21.7618959033  TIP3      4657            0.0000000000
     27439      4803  TIP3      H2             15.1206502908      -11.4922237512      -23.2301819830  TIP3      4657            0.0000000000
     27440      4804  TIP3      OH2             8.7879202317      -17.1263269757      -22.6380702039  TIP3      4658            0.0000000000
     27441      4804  TIP3      H1              9.4555505025      -17.7990486718      -22.4333017224  TIP3      4658            0.0000000000
     27442      4804  TIP3      H2              8.2438027657      -17.5852122098      -23.3004595336  TIP3      4658            0.0000000000
     27443      4805  TIP3      OH2            23.3077383100      -23.1442239977      -23.3323793889  TIP3      4659            0.0000000000
     27444      4805  TIP3      H1             23.9158596030      -22.9443096976      -24.0560202398  TIP3      4659            0.0000000000
     27445      4805  TIP3      H2             23.5242222332      -24.0864337594      -23.1465946280  TIP3      4659            0.0000000000
     27446      4806  TIP3      OH2            23.8892266094      -25.8165320775      -23.1377445025  TIP3      4660            0.0000000000
     27447      4806  TIP3      H1             24.4511357230      -26.5208970777      -22.7359249471  TIP3      4660            0.0000000000
     27448      4806  TIP3      H2             23.0089827597      -26.2608478438      -23.2402876896  TIP3      4660            0.0000000000
     27449      4807  TIP3      OH2            25.5467724199      -27.7492489212      -22.1289723265  TIP3      4661            0.0000000000
     27450      4807  TIP3      H1             26.3002107543      -28.2510487213      -22.4894846142  TIP3      4661            0.0000000000
     27451      4807  TIP3      H2             25.9198118666      -27.3896441282      -21.2914832054  TIP3      4661            0.0000000000
     27452      4808  TIP3      OH2             9.1249568173      -29.6629770212      -20.6695990394  TIP3      4662            0.0000000000
     27453      4808  TIP3      H1              9.6930850280      -29.3996477519      -21.4123407356  TIP3      4662            0.0000000000
     27454      4808  TIP3      H2              8.4760439593      -28.9487393425      -20.6973656167  TIP3      4662            0.0000000000
     27455      4809  TIP3      OH2            10.4174654563      -27.5532438682      -22.4205283323  TIP3      4663            0.0000000000
     27456      4809  TIP3      H1             10.9955002245      -28.1224104886      -22.9606598620  TIP3      4663            0.0000000000
     27457      4809  TIP3      H2             11.0096170610      -27.3666418985      -21.6594228133  TIP3      4663            0.0000000000
     27458      4810  TIP3      OH2            16.7922660198      -11.9838843883      -21.1428495079  TIP3      4664            0.0000000000
     27459      4810  TIP3      H1             17.7530257695      -11.8209571159      -21.1898619917  TIP3      4664            0.0000000000
     27460      4810  TIP3      H2             16.7316738734      -12.9495087381      -21.2045414688  TIP3      4664            0.0000000000
     27461      4811  TIP3      OH2            10.1010087015      -12.6766611960      -23.2431390852  TIP3      4665            0.0000000000
     27462      4811  TIP3      H1             10.1045568732      -12.3735321713      -22.3209900724  TIP3      4665            0.0000000000
     27463      4811  TIP3      H2             10.9006725843      -13.2308784393      -23.3147881955  TIP3      4665            0.0000000000
     27464      4812  TIP3      OH2            30.4615618466      -18.3393555096      -20.4787985314  TIP3      4666            0.0000000000
     27465      4812  TIP3      H1             30.2986147071      -18.9031530491      -19.7115907891  TIP3      4666            0.0000000000
     27466      4812  TIP3      H2             30.3876598469      -17.4346052305      -20.0767693616  TIP3      4666            0.0000000000
     27467      4813  TIP3      OH2            29.0423863691      -23.4431630043      -22.7116163244  TIP3      4667            0.0000000000
     27468      4813  TIP3      H1             29.3285718590      -23.1087033893      -21.8426818293  TIP3      4667            0.0000000000
     27469      4813  TIP3      H2             28.9232521824      -24.3816983713      -22.5205448228  TIP3      4667            0.0000000000
     27470      4814  TIP3      OH2            27.4259078871      -16.5708485420      -22.8402324531  TIP3      4668            0.0000000000
     27471      4814  TIP3      H1             28.1631235993      -16.6377110069      -22.2068600889  TIP3      4668            0.0000000000
     27472      4814  TIP3      H2             27.5270058499      -17.3973425183      -23.3559798721  TIP3      4668            0.0000000000
     27473      4815  TIP3      OH2            29.6104652751      -27.5991002823      -22.6544806140  TIP3      4669            0.0000000000
     27474      4815  TIP3      H1             30.2191677731      -28.0170111470      -23.2727619700  TIP3      4669            0.0000000000
     27475      4815  TIP3      H2             30.1721362967      -26.9368111186      -22.1941380036  TIP3      4669            0.0000000000
     27476      4816  TIP3      OH2            29.5410208531      -12.8524792630      -23.0556497325  TIP3      4670            0.0000000000
     27477      4816  TIP3      H1             29.1911586897      -13.4466386586      -22.3745238342  TIP3      4670            0.0000000000
     27478      4816  TIP3      H2             30.1546326137      -13.4287398148      -23.5290338233  TIP3      4670            0.0000000000
     27479      4817  TIP3      OH2           -17.2190338180        6.1793934694      -22.1669283250  TIP3      4671            0.0000000000
     27480      4817  TIP3      H1            -16.8207884039        5.5297103461      -22.7796070373  TIP3      4671            0.0000000000
     27481      4817  TIP3      H2            -16.5594787889        6.2088806990      -21.4639774781  TIP3      4671            0.0000000000
     27482      4818  TIP3      OH2           -15.7894390889       -1.1366762627      -22.6958484068  TIP3      4672            0.0000000000
     27483      4818  TIP3      H1            -15.8930326007       -1.6641370869      -23.5046237580  TIP3      4672            0.0000000000
     27484      4818  TIP3      H2            -14.8567789558       -0.8735381403      -22.8025336427  TIP3      4672            0.0000000000
     27485      4819  TIP3      OH2           -20.4378714367       -7.7169315747      -22.1739940082  TIP3      4673            0.0000000000
     27486      4819  TIP3      H1            -21.3570078282       -7.4247791517      -22.1510301775  TIP3      4673            0.0000000000
     27487      4819  TIP3      H2            -20.5129780540       -8.5451757967      -22.6797266019  TIP3      4673            0.0000000000
     27488      4820  TIP3      OH2           -23.3472571102       -7.1465684379      -23.2243563551  TIP3      4674            0.0000000000
     27489      4820  TIP3      H1            -23.9527595617       -7.7923615541      -22.8376904481  TIP3      4674            0.0000000000
     27490      4820  TIP3      H2            -23.9505673617       -6.6232695211      -23.7941332440  TIP3      4674            0.0000000000
     27491      4821  TIP3      OH2           -28.1699432008       -2.3142649507      -21.7921806336  TIP3      4675            0.0000000000
     27492      4821  TIP3      H1            -27.7341187322       -1.4926333003      -21.5223987654  TIP3      4675            0.0000000000
     27493      4821  TIP3      H2            -28.9351223755       -1.9689639886      -22.3053132995  TIP3      4675            0.0000000000
     27494      4822  TIP3      OH2           -12.2811993258        6.0264021463      -22.3111338252  TIP3      4676            0.0000000000
     27495      4822  TIP3      H1            -11.8666118614        6.4673757216      -23.0610675689  TIP3      4676            0.0000000000
     27496      4822  TIP3      H2            -12.5269023791        6.8160340499      -21.7867624887  TIP3      4676            0.0000000000
     27497      4823  TIP3      OH2           -22.4973899931        3.4844147440      -24.3631402624  TIP3      4677            0.0000000000
     27498      4823  TIP3      H1            -21.9221562432        2.7225762765      -24.5284429954  TIP3      4677            0.0000000000
     27499      4823  TIP3      H2            -23.3480763577        3.1269597902      -24.6743907111  TIP3      4677            0.0000000000
     27500      4824  TIP3      OH2           -26.6112381242        0.1789519897      -21.0686120077  TIP3      4678            0.0000000000
     27501      4824  TIP3      H1            -26.0364496215        0.1625966393      -20.2558923618  TIP3      4678            0.0000000000
     27502      4824  TIP3      H2            -26.6552499373        1.1361951221      -21.2244729810  TIP3      4678            0.0000000000
     27503      4825  TIP3      OH2           -24.3161089251       -8.5447258459      -20.2485293585  TIP3      4679            0.0000000000
     27504      4825  TIP3      H1            -25.0546510002       -8.0428991195      -19.8375686991  TIP3      4679            0.0000000000
     27505      4825  TIP3      H2            -23.8410641370       -7.8220215088      -20.6667401517  TIP3      4679            0.0000000000
     27506      4826  TIP3      OH2           -26.0067812728        2.7178683372      -22.0333237589  TIP3      4680            0.0000000000
     27507      4826  TIP3      H1            -25.4409686649        2.9711985993      -21.2842426172  TIP3      4680            0.0000000000
     27508      4826  TIP3      H2            -25.3990245242        2.1570360627      -22.5663976963  TIP3      4680            0.0000000000
     27509      4827  TIP3      OH2           -28.2014939699       -4.6640935168      -23.2813993761  TIP3      4681            0.0000000000
     27510      4827  TIP3      H1            -27.9824425891       -3.9332367838      -22.6619148029  TIP3      4681            0.0000000000
     27511      4827  TIP3      H2            -29.1269509957       -4.7704379376      -22.9955953916  TIP3      4681            0.0000000000
     27512      4828  TIP3      OH2           -20.2718390612        5.2521229141      -23.6137985752  TIP3      4682            0.0000000000
     27513      4828  TIP3      H1            -21.0781175709        4.7047777011      -23.6305157398  TIP3      4682            0.0000000000
     27514      4828  TIP3      H2            -19.6303648849        4.7304462104      -24.1239828082  TIP3      4682            0.0000000000
     27515      4829  TIP3      OH2           -15.6330119976        4.7241292720      -23.9853502082  TIP3      4683            0.0000000000
     27516      4829  TIP3      H1            -14.8642560990        4.1872655713      -24.2493005029  TIP3      4683            0.0000000000
     27517      4829  TIP3      H2            -15.3860210341        5.5867835560      -24.3620569588  TIP3      4683            0.0000000000
     27518      4830  TIP3      OH2           -24.6957549192        0.8027774243      -23.6148831151  TIP3      4684            0.0000000000
     27519      4830  TIP3      H1            -25.1379023638       -0.0462483294      -23.4206989223  TIP3      4684            0.0000000000
     27520      4830  TIP3      H2            -23.8213265431        0.5208122520      -23.9474632765  TIP3      4684            0.0000000000
     27521      4831  TIP3      OH2           -19.0256321500        1.7336336547      -23.2722538827  TIP3      4685            0.0000000000
     27522      4831  TIP3      H1            -18.7475832300        0.9013628706      -22.8563837556  TIP3      4685            0.0000000000
     27523      4831  TIP3      H2            -19.6272504788        1.3640255012      -23.9323067454  TIP3      4685            0.0000000000
     27524      4832  TIP3      OH2           -22.3744268304       -3.2743070274      -23.0095775377  TIP3      4686            0.0000000000
     27525      4832  TIP3      H1            -23.1274803150       -3.1874661103      -23.6232072023  TIP3      4686            0.0000000000
     27526      4832  TIP3      H2            -21.6389053959       -3.1862142107      -23.6456614099  TIP3      4686            0.0000000000
     27527      4833  TIP3      OH2           -13.2415277320       -0.9077187682      -23.7964106862  TIP3      4687            0.0000000000
     27528      4833  TIP3      H1            -13.2924786450       -1.2561026871      -24.7111149000  TIP3      4687            0.0000000000
     27529      4833  TIP3      H2            -12.3481844311       -0.5172692539      -23.8022084695  TIP3      4687            0.0000000000
     27530      4834  TIP3      OH2           -22.0058086263        7.1890807962      -21.7951223835  TIP3      4688            0.0000000000
     27531      4834  TIP3      H1            -22.7529788096        7.2164440152      -21.1908142066  TIP3      4688            0.0000000000
     27532      4834  TIP3      H2            -22.0428057040        8.0632691904      -22.2457572849  TIP3      4688            0.0000000000
     27533      4835  TIP3      OH2           -28.3858607244        3.0590251499      -23.3153923446  TIP3      4689            0.0000000000
     27534      4835  TIP3      H1            -27.6125313417        3.1025438139      -22.7208948057  TIP3      4689            0.0000000000
     27535      4835  TIP3      H2            -28.2763763309        2.1555569085      -23.6681953544  TIP3      4689            0.0000000000
     27536      4836  TIP3      OH2           -11.5194869966       -2.2141850525      -21.6928813933  TIP3      4690            0.0000000000
     27537      4836  TIP3      H1            -12.4044604221       -2.0930904687      -22.0611497788  TIP3      4690            0.0000000000
     27538      4836  TIP3      H2            -11.7123165995       -2.4813241251      -20.7869708014  TIP3      4690            0.0000000000
     27539      4837  TIP3      OH2           -12.7958807033       -4.9614830387      -23.2367639070  TIP3      4691            0.0000000000
     27540      4837  TIP3      H1            -13.2581236845       -4.6039408703      -23.9983089098  TIP3      4691            0.0000000000
     27541      4837  TIP3      H2            -13.4776539442       -5.5138611917      -22.8291757035  TIP3      4691            0.0000000000
     27542      4838  TIP3      OH2           -14.5802065537       -7.1722255242      -23.2950526598  TIP3      4692            0.0000000000
     27543      4838  TIP3      H1            -13.8450860791       -7.6055816047      -23.7488310838  TIP3      4692            0.0000000000
     27544      4838  TIP3      H2            -15.3146276476       -7.3740356566      -23.8960721595  TIP3      4692            0.0000000000
     27545      4839  TIP3      OH2           -19.5282479726        7.2085426650      -20.8677221449  TIP3      4693            0.0000000000
     27546      4839  TIP3      H1            -18.9094957078        6.9102727218      -21.5533217462  TIP3      4693            0.0000000000
     27547      4839  TIP3      H2            -20.3700845232        6.8994547258      -21.2777017575  TIP3      4693            0.0000000000
     27548      4840  TIP3      OH2           -27.4008209689        6.2840929430      -22.4557980687  TIP3      4694            0.0000000000
     27549      4840  TIP3      H1            -27.0727564379        6.8536867968      -21.7398753107  TIP3      4694            0.0000000000
     27550      4840  TIP3      H2            -26.7445948801        5.5677818486      -22.4857739019  TIP3      4694            0.0000000000
     27551      4841  TIP3      OH2            -0.8341579864       -3.2164001093      -22.5896331199  TIP3      4695            0.0000000000
     27552      4841  TIP3      H1             -0.3188551343       -2.8478372113      -21.8522099931  TIP3      4695            0.0000000000
     27553      4841  TIP3      H2             -0.1527423722       -3.7665205804      -23.0248169760  TIP3      4695            0.0000000000
     27554      4842  TIP3      OH2             1.8609481616       -2.5805610964      -20.8304791720  TIP3      4696            0.0000000000
     27555      4842  TIP3      H1              2.3548472617       -2.5174651459      -20.0055972745  TIP3      4696            0.0000000000
     27556      4842  TIP3      H2              2.3901536799       -2.0217233514      -21.4504537602  TIP3      4696            0.0000000000
     27557      4843  TIP3      OH2             5.0509861568      -10.9221256786      -20.6801329020  TIP3      4697            0.0000000000
     27558      4843  TIP3      H1              4.1763238129      -10.6947321603      -20.9919145286  TIP3      4697            0.0000000000
     27559      4843  TIP3      H2              5.5608905503      -10.1156867457      -20.9119964568  TIP3      4697            0.0000000000
     27560      4844  TIP3      OH2             6.4290211568        3.2569004890      -22.6151465890  TIP3      4698            0.0000000000
     27561      4844  TIP3      H1              6.7378798879        4.1189249649      -22.3137300702  TIP3      4698            0.0000000000
     27562      4844  TIP3      H2              7.1071703299        2.6332965907      -22.2634806664  TIP3      4698            0.0000000000
     27563      4845  TIP3      OH2             1.8338681402        5.7810085977      -21.3353483400  TIP3      4699            0.0000000000
     27564      4845  TIP3      H1              1.9313141678        5.5445065167      -22.2878595240  TIP3      4699            0.0000000000
     27565      4845  TIP3      H2              1.2768464109        5.0483234678      -21.0435829628  TIP3      4699            0.0000000000
     27566      4846  TIP3      OH2             3.1494635997       -1.0121774189      -22.6030936600  TIP3      4700            0.0000000000
     27567      4846  TIP3      H1              2.8933796622       -0.9062283676      -23.5476748835  TIP3      4700            0.0000000000
     27568      4846  TIP3      H2              4.1211458096       -1.0224762087      -22.6920907252  TIP3      4700            0.0000000000
     27569      4847  TIP3      OH2            -4.7109061078       -7.1584750201      -23.1661099594  TIP3      4701            0.0000000000
     27570      4847  TIP3      H1             -4.5869216724       -7.2101174611      -22.1969750564  TIP3      4701            0.0000000000
     27571      4847  TIP3      H2             -5.4383948219       -6.5168391958      -23.2262750996  TIP3      4701            0.0000000000
     27572      4848  TIP3      OH2           -10.3412723908       -6.6597789403      -21.1444438436  TIP3      4702            0.0000000000
     27573      4848  TIP3      H1             -9.7737840460       -7.4420073448      -21.2098412838  TIP3      4702            0.0000000000
     27574      4848  TIP3      H2             -9.9662952610       -6.1464480412      -21.8794890908  TIP3      4702            0.0000000000
     27575      4849  TIP3      OH2            -5.6821500933       -4.6773772253      -22.0620475364  TIP3      4703            0.0000000000
     27576      4849  TIP3      H1             -6.0618548523       -4.8001590341      -22.9457852948  TIP3      4703            0.0000000000
     27577      4849  TIP3      H2             -4.9066978556       -4.1397983902      -22.2966366252  TIP3      4703            0.0000000000
     27578      4850  TIP3      OH2             1.1023143504       -6.6363140430      -22.1016848335  TIP3      4704            0.0000000000
     27579      4850  TIP3      H1              0.2834501736       -7.0725195872      -21.7671437910  TIP3      4704            0.0000000000
     27580      4850  TIP3      H2              1.4763727049       -6.2990918846      -21.2805501855  TIP3      4704            0.0000000000
     27581      4851  TIP3      OH2            -0.3298141051        1.6813701167      -21.4756775742  TIP3      4705            0.0000000000
     27582      4851  TIP3      H1             -0.7827251693        2.4559830449      -21.0850903706  TIP3      4705            0.0000000000
     27583      4851  TIP3      H2             -0.7140237171        1.0064819719      -20.9118316157  TIP3      4705            0.0000000000
     27584      4852  TIP3      OH2             6.7859797282       -5.1772319586      -20.8453691457  TIP3      4706            0.0000000000
     27585      4852  TIP3      H1              6.0567803763       -5.1275525643      -21.4964912863  TIP3      4706            0.0000000000
     27586      4852  TIP3      H2              6.9168858894       -4.2398958468      -20.6337248696  TIP3      4706            0.0000000000
     27587      4853  TIP3      OH2            -8.9437030293       -2.1431692985      -22.3377906849  TIP3      4707            0.0000000000
     27588      4853  TIP3      H1             -8.5999169778       -1.5527718774      -21.6379388329  TIP3      4707            0.0000000000
     27589      4853  TIP3      H2             -9.9137235037       -2.0550369165      -22.2043083478  TIP3      4707            0.0000000000
     27590      4854  TIP3      OH2             2.9645097460        2.0889580484      -22.1410153496  TIP3      4708            0.0000000000
     27591      4854  TIP3      H1              3.2311911286        2.0322026125      -21.2108179186  TIP3      4708            0.0000000000
     27592      4854  TIP3      H2              2.1297552070        1.5927232309      -22.1334064163  TIP3      4708            0.0000000000
     27593      4855  TIP3      OH2             6.2947441503        6.4209294667      -22.1865807991  TIP3      4709            0.0000000000
     27594      4855  TIP3      H1              6.4250808566        6.6698431319      -23.1171325746  TIP3      4709            0.0000000000
     27595      4855  TIP3      H2              6.7026739234        7.1758027510      -21.7269946851  TIP3      4709            0.0000000000
     27596      4856  TIP3      OH2            -3.1191994439        3.1978434469      -23.5329939521  TIP3      4710            0.0000000000
     27597      4856  TIP3      H1             -3.1959665343        2.6313692766      -24.3178828739  TIP3      4710            0.0000000000
     27598      4856  TIP3      H2             -3.6840237587        2.7127094526      -22.8998885016  TIP3      4710            0.0000000000
     27599      4857  TIP3      OH2            -4.7103214237        2.5136609888      -21.1263293171  TIP3      4711            0.0000000000
     27600      4857  TIP3      H1             -4.2014126732        1.9180475400      -20.5514637753  TIP3      4711            0.0000000000
     27601      4857  TIP3      H2             -4.4105579031        3.3922383142      -20.8204102725  TIP3      4711            0.0000000000
     27602      4858  TIP3      OH2            -8.1612856273       -0.0982801504      -20.6968821488  TIP3      4712            0.0000000000
     27603      4858  TIP3      H1             -8.6672139140        0.6186033507      -20.3104855442  TIP3      4712            0.0000000000
     27604      4858  TIP3      H2             -7.3403687805        0.3457835929      -20.9796050716  TIP3      4712            0.0000000000
     27605      4859  TIP3      OH2            -1.6960505812        3.5016566136      -20.0815433319  TIP3      4713            0.0000000000
     27606      4859  TIP3      H1             -2.5175388452        3.8118233167      -19.6646385650  TIP3      4713            0.0000000000
     27607      4859  TIP3      H2             -1.4665338141        4.2815427901      -20.6031541674  TIP3      4713            0.0000000000
     27608      4860  TIP3      OH2            -3.9428900041        5.1459227011      -20.2506393405  TIP3      4714            0.0000000000
     27609      4860  TIP3      H1             -3.7020450535        5.8058775406      -20.9407857206  TIP3      4714            0.0000000000
     27610      4860  TIP3      H2             -4.4740324852        5.6978086584      -19.6567493827  TIP3      4714            0.0000000000
     27611      4861  TIP3      OH2            -7.3678989989        2.0949504386      -22.2148806959  TIP3      4715            0.0000000000
     27612      4861  TIP3      H1             -6.5930380330        2.4814609432      -21.7744071852  TIP3      4715            0.0000000000
     27613      4861  TIP3      H2             -6.9072718235        1.4819012176      -22.8245302085  TIP3      4715            0.0000000000
     27614      4862  TIP3      OH2            -9.1890933209       -4.8958209793      -23.0992726109  TIP3      4716            0.0000000000
     27615      4862  TIP3      H1             -8.6349345280       -4.3010182476      -22.5515530230  TIP3      4716            0.0000000000
     27616      4862  TIP3      H2            -10.0829330866       -4.5316673862      -22.9758808605  TIP3      4716            0.0000000000
     27617      4863  TIP3      OH2            -0.6173545653        4.5911668869      -22.9835544089  TIP3      4717            0.0000000000
     27618      4863  TIP3      H1             -1.3953175725        4.0067420750      -23.1321633802  TIP3      4717            0.0000000000
     27619      4863  TIP3      H2             -0.2020036591        4.5486515525      -23.8681779300  TIP3      4717            0.0000000000
     27620      4864  TIP3      OH2             3.3177622628        4.5175178819      -23.2551558923  TIP3      4718            0.0000000000
     27621      4864  TIP3      H1              3.3684733205        3.6039390142      -22.8863098473  TIP3      4718            0.0000000000
     27622      4864  TIP3      H2              3.9640058368        4.4570729014      -23.9915912847  TIP3      4718            0.0000000000
     27623      4865  TIP3      OH2            -5.6617481088        0.2174720705      -23.5176908875  TIP3      4719            0.0000000000
     27624      4865  TIP3      H1             -5.6168253524       -0.4798611998      -22.8353253068  TIP3      4719            0.0000000000
     27625      4865  TIP3      H2             -4.9004201570       -0.0221039060      -24.0939734462  TIP3      4719            0.0000000000
     27626      4866  TIP3      OH2            -0.1472007046        1.7065811967      -24.2792955885  TIP3      4720            0.0000000000
     27627      4866  TIP3      H1             -0.2230232218        1.7963624176      -23.3065352224  TIP3      4720            0.0000000000
     27628      4866  TIP3      H2             -0.3117601142        0.7369551248      -24.3576962400  TIP3      4720            0.0000000000
     27629      4867  TIP3      OH2            -5.0491486862       -1.5860919107      -20.9737412395  TIP3      4721            0.0000000000
     27630      4867  TIP3      H1             -5.3977892311       -2.2399610231      -20.3445456935  TIP3      4721            0.0000000000
     27631      4867  TIP3      H2             -4.5590522378       -2.1442616356      -21.5994215287  TIP3      4721            0.0000000000
     27632      4868  TIP3      OH2            -3.6075765838       -3.0295286166      -23.1341919807  TIP3      4722            0.0000000000
     27633      4868  TIP3      H1             -3.8039331805       -2.9518975172      -24.0911396099  TIP3      4722            0.0000000000
     27634      4868  TIP3      H2             -2.6447456921       -3.1974097024      -23.1531756754  TIP3      4722            0.0000000000
     27635      4869  TIP3      OH2             5.7708272515       -0.9069230462      -23.5826037032  TIP3      4723            0.0000000000
     27636      4869  TIP3      H1              5.5548344109       -1.3547868913      -24.4286845258  TIP3      4723            0.0000000000
     27637      4869  TIP3      H2              5.5874436488        0.0328708835      -23.8343635864  TIP3      4723            0.0000000000
     27638      4870  TIP3      OH2            -3.7029493066        6.8405382576      -22.3989499396  TIP3      4724            0.0000000000
     27639      4870  TIP3      H1             -3.2193717015        7.2182520056      -23.1511759410  TIP3      4724            0.0000000000
     27640      4870  TIP3      H2             -4.6132932081        6.8307136015      -22.7300689792  TIP3      4724            0.0000000000
     27641      4871  TIP3      OH2           -10.5624564657        1.8148090147      -22.5338324879  TIP3      4725            0.0000000000
     27642      4871  TIP3      H1             -9.6023090656        1.7561495817      -22.3935864096  TIP3      4725            0.0000000000
     27643      4871  TIP3      H2            -10.6658339177        1.2647892229      -23.3366468964  TIP3      4725            0.0000000000
     27644      4872  TIP3      OH2             6.9497579281       -2.3302684607      -21.3725879346  TIP3      4726            0.0000000000
     27645      4872  TIP3      H1              6.6392035639       -2.0867736901      -22.2696457444  TIP3      4726            0.0000000000
     27646      4872  TIP3      H2              6.3310575056       -1.8389103235      -20.8154967593  TIP3      4726            0.0000000000
     27647      4873  TIP3      OH2             4.9255967220       -4.8177054598      -23.0895438256  TIP3      4727            0.0000000000
     27648      4873  TIP3      H1              5.5394815642       -4.6193670680      -23.8094385070  TIP3      4727            0.0000000000
     27649      4873  TIP3      H2              4.6898448752       -5.7549980810      -23.2850266497  TIP3      4727            0.0000000000
     27650      4874  TIP3      OH2             4.4167009962       -7.4359177576      -23.2476624010  TIP3      4728            0.0000000000
     27651      4874  TIP3      H1              4.9996927960       -8.0376335048      -22.7412596474  TIP3      4728            0.0000000000
     27652      4874  TIP3      H2              3.5349197166       -7.6393127808      -22.9167148378  TIP3      4728            0.0000000000
     27653      4875  TIP3      OH2             6.4307840359       -8.8369215939      -21.7614428618  TIP3      4729            0.0000000000
     27654      4875  TIP3      H1              6.9089831865       -9.2822100180      -22.4998787290  TIP3      4729            0.0000000000
     27655      4875  TIP3      H2              7.1462709339       -8.2820878399      -21.3858415377  TIP3      4729            0.0000000000
     27656      4876  TIP3      OH2            -7.7990495689       -8.1995179392      -22.4916453214  TIP3      4730            0.0000000000
     27657      4876  TIP3      H1             -7.2078299409       -8.7481601951      -23.0275503995  TIP3      4730            0.0000000000
     27658      4876  TIP3      H2             -7.7826175682       -8.7377624766      -21.6691434836  TIP3      4730            0.0000000000
     27659      4877  TIP3      OH2            -0.6370262251        7.3913943850      -22.4753928431  TIP3      4731            0.0000000000
     27660      4877  TIP3      H1              0.0499966184        7.0869588038      -21.8734652079  TIP3      4731            0.0000000000
     27661      4877  TIP3      H2             -0.8570691581        6.5398997106      -22.8843096496  TIP3      4731            0.0000000000
     27662      4878  TIP3      OH2            -8.1994761303        6.1750358132      -22.4269312096  TIP3      4732            0.0000000000
     27663      4878  TIP3      H1             -8.0814366663        6.3782780028      -21.4894391185  TIP3      4732            0.0000000000
     27664      4878  TIP3      H2             -7.4316775353        5.6211671084      -22.6619319750  TIP3      4732            0.0000000000
     27665      4879  TIP3      OH2            25.3931297292        3.8356321192      -22.8315441974  TIP3      4733            0.0000000000
     27666      4879  TIP3      H1             25.4189862672        4.5287175194      -22.1554298855  TIP3      4733            0.0000000000
     27667      4879  TIP3      H2             26.2591714054        3.9457273530      -23.2257910942  TIP3      4733            0.0000000000
     27668      4880  TIP3      OH2            21.7600051888       -0.9372041692      -22.8022320685  TIP3      4734            0.0000000000
     27669      4880  TIP3      H1             21.5908135502       -1.0493922076      -23.7563424606  TIP3      4734            0.0000000000
     27670      4880  TIP3      H2             22.7299844162       -0.9495482139      -22.7981784489  TIP3      4734            0.0000000000
     27671      4881  TIP3      OH2             8.5321885308       -7.2796360323      -21.0470375557  TIP3      4735            0.0000000000
     27672      4881  TIP3      H1              9.1784351870       -6.7485095609      -21.5302530970  TIP3      4735            0.0000000000
     27673      4881  TIP3      H2              7.8960658530       -6.5699454793      -20.7845637789  TIP3      4735            0.0000000000
     27674      4882  TIP3      OH2            19.5999758205       -6.9523845285      -22.5332930764  TIP3      4736            0.0000000000
     27675      4882  TIP3      H1             19.0996199384       -7.4953082434      -21.9163722133  TIP3      4736            0.0000000000
     27676      4882  TIP3      H2             20.0320365049       -6.3159445633      -21.9214137355  TIP3      4736            0.0000000000
     27677      4883  TIP3      OH2            20.7261055717       -5.2072681274      -20.7621517620  TIP3      4737            0.0000000000
     27678      4883  TIP3      H1             21.1067197938       -5.6888640957      -20.0091374555  TIP3      4737            0.0000000000
     27679      4883  TIP3      H2             21.4507556135       -4.5727868363      -20.9244859488  TIP3      4737            0.0000000000
     27680      4884  TIP3      OH2             9.6030404364       -1.8531619655      -22.0676211362  TIP3      4738            0.0000000000
     27681      4884  TIP3      H1             10.0135802334       -1.1626842619      -21.5027588474  TIP3      4738            0.0000000000
     27682      4884  TIP3      H2              8.6901285333       -1.8589748691      -21.7064900325  TIP3      4738            0.0000000000
     27683      4885  TIP3      OH2            22.0235375425        2.1287934588      -22.1389853663  TIP3      4739            0.0000000000
     27684      4885  TIP3      H1             21.7957713109        2.2983057470      -21.2087290583  TIP3      4739            0.0000000000
     27685      4885  TIP3      H2             21.1930832074        1.6942172404      -22.4042704879  TIP3      4739            0.0000000000
     27686      4886  TIP3      OH2            26.2704647899        6.3482653054      -22.1087477387  TIP3      4740            0.0000000000
     27687      4886  TIP3      H1             26.4812115380        6.6821885010      -21.2297240614  TIP3      4740            0.0000000000
     27688      4886  TIP3      H2             26.2430117059        7.1863342524      -22.6195939298  TIP3      4740            0.0000000000
     27689      4887  TIP3      OH2            15.7541494324        3.0270738970      -23.9528904095  TIP3      4741            0.0000000000
     27690      4887  TIP3      H1             15.4673632590        2.5616103557      -24.7602532517  TIP3      4741            0.0000000000
     27691      4887  TIP3      H2             15.1623479622        2.6041669763      -23.3128006963  TIP3      4741            0.0000000000
     27692      4888  TIP3      OH2            14.2773807918        2.8516240361      -20.9737385762  TIP3      4742            0.0000000000
     27693      4888  TIP3      H1             15.0403975179        2.2490301143      -21.0174566110  TIP3      4742            0.0000000000
     27694      4888  TIP3      H2             14.7416561610        3.6959287711      -20.9001649802  TIP3      4742            0.0000000000
     27695      4889  TIP3      OH2            10.7658781102       -0.0698814066      -20.3687286808  TIP3      4743            0.0000000000
     27696      4889  TIP3      H1             10.2464127677        0.7213501210      -20.1660984945  TIP3      4743            0.0000000000
     27697      4889  TIP3      H2             11.5896509129        0.2866200702      -20.7253640815  TIP3      4743            0.0000000000
     27698      4890  TIP3      OH2            11.4610795695        2.3482235815      -22.0005903943  TIP3      4744            0.0000000000
     27699      4890  TIP3      H1             12.1460374471        2.5935037601      -21.3635590714  TIP3      4744            0.0000000000
     27700      4890  TIP3      H2             12.0175686218        1.8729993721      -22.6462434335  TIP3      4744            0.0000000000
     27701      4891  TIP3      OH2             9.8912257094       -4.9959389554      -22.7076619768  TIP3      4745            0.0000000000
     27702      4891  TIP3      H1             10.2567434880       -4.3324743216      -22.1071275537  TIP3      4745            0.0000000000
     27703      4891  TIP3      H2              9.0322634251       -4.5921185394      -22.9339871678  TIP3      4745            0.0000000000
     27704      4892  TIP3      OH2            17.7444877451        5.2010834168      -23.6129876163  TIP3      4746            0.0000000000
     27705      4892  TIP3      H1             17.2763499362        4.3584440997      -23.4240597102  TIP3      4746            0.0000000000
     27706      4892  TIP3      H2             18.5237760841        4.8591133840      -24.1163093321  TIP3      4746            0.0000000000
     27707      4893  TIP3      OH2            21.9914633038        4.3937578496      -23.6173144326  TIP3      4747            0.0000000000
     27708      4893  TIP3      H1             22.0285384576        3.5486668750      -23.1138076383  TIP3      4747            0.0000000000
     27709      4893  TIP3      H2             22.8396094807        4.3832335154      -24.0991815582  TIP3      4747            0.0000000000
     27710      4894  TIP3      OH2            13.2099639524        0.5184578673      -23.5906429964  TIP3      4748            0.0000000000
     27711      4894  TIP3      H1             13.2679596417       -0.1612661440      -22.8817257087  TIP3      4748            0.0000000000
     27712      4894  TIP3      H2             13.8962740923        0.1765919062      -24.1882765903  TIP3      4748            0.0000000000
     27713      4895  TIP3      OH2            19.1385765926        1.7439899130      -23.8723394235  TIP3      4749            0.0000000000
     27714      4895  TIP3      H1             18.6643106845        1.9913088256      -23.0460488802  TIP3      4749            0.0000000000
     27715      4895  TIP3      H2             18.9453453071        0.7792754778      -23.8891837958  TIP3      4749            0.0000000000
     27716      4896  TIP3      OH2            13.5106654096       -1.2397497752      -21.4563616266  TIP3      4750            0.0000000000
     27717      4896  TIP3      H1             12.7247668155       -1.7367565610      -21.1821437197  TIP3      4750            0.0000000000
     27718      4896  TIP3      H2             14.1423820286       -1.9396883204      -21.7334558326  TIP3      4750            0.0000000000
     27719      4897  TIP3      OH2            15.4715197791       -2.6512607635      -23.0378860722  TIP3      4751            0.0000000000
     27720      4897  TIP3      H1             15.0942450512       -3.0370861534      -23.8512047819  TIP3      4751            0.0000000000
     27721      4897  TIP3      H2             16.3676489974       -2.4198860840      -23.3370428155  TIP3      4751            0.0000000000
     27722      4898  TIP3      OH2            24.4253893841       -1.0812718714      -23.6316055912  TIP3      4752            0.0000000000
     27723      4898  TIP3      H1             24.5508968234       -1.2891661727      -24.5878589885  TIP3      4752            0.0000000000
     27724      4898  TIP3      H2             24.5602118452       -0.0990652335      -23.6389157442  TIP3      4752            0.0000000000
     27725      4899  TIP3      OH2             8.5245355020        1.6658032923      -22.2766561321  TIP3      4753            0.0000000000
     27726      4899  TIP3      H1              9.4832697970        1.7878567488      -22.2671565743  TIP3      4753            0.0000000000
     27727      4899  TIP3      H2              8.3893504224        0.9990773619      -22.9869789001  TIP3      4753            0.0000000000
     27728      4900  TIP3      OH2            25.7377606644       -1.9761913054      -21.4307617510  TIP3      4754            0.0000000000
     27729      4900  TIP3      H1             25.1186573684       -1.7446579813      -22.1557175682  TIP3      4754            0.0000000000
     27730      4900  TIP3      H2             25.2155580538       -2.4780766632      -20.7952813058  TIP3      4754            0.0000000000
     27731      4901  TIP3      OH2            23.7318117160       -4.9278180391      -23.3916007340  TIP3      4755            0.0000000000
     27732      4901  TIP3      H1             24.1871684830       -4.4201960701      -24.0744990407  TIP3      4755            0.0000000000
     27733      4901  TIP3      H2             23.5988915239       -5.7903469611      -23.8216182659  TIP3      4755            0.0000000000
     27734      4902  TIP3      OH2            24.0618219703       -7.7658319639      -23.6937343116  TIP3      4756            0.0000000000
     27735      4902  TIP3      H1             24.3083434847       -8.5736510657      -23.2244937066  TIP3      4756            0.0000000000
     27736      4902  TIP3      H2             23.1654316550       -7.9399728911      -24.0396106627  TIP3      4756            0.0000000000
     27737      4903  TIP3      OH2             8.8823471459      -10.7918202882      -21.1202781440  TIP3      4757            0.0000000000
     27738      4903  TIP3      H1              9.1031518163      -10.2792824952      -21.9154630575  TIP3      4757            0.0000000000
     27739      4903  TIP3      H2              8.4094575054      -10.1185136046      -20.6068829828  TIP3      4757            0.0000000000
     27740      4904  TIP3      OH2            18.4274050437        6.8760238692      -21.4365439864  TIP3      4758            0.0000000000
     27741      4904  TIP3      H1             17.9868702975        7.6200023750      -21.8648014011  TIP3      4758            0.0000000000
     27742      4904  TIP3      H2             18.2295366184        6.1485173876      -22.0550798788  TIP3      4758            0.0000000000
     27743      4905  TIP3      OH2            10.5807725219        6.0450280952      -23.8027180953  TIP3      4759            0.0000000000
     27744      4905  TIP3      H1             10.1799760637        6.0074074315      -22.9281017206  TIP3      4759            0.0000000000
     27745      4905  TIP3      H2             11.3383134052        5.4305060063      -23.7204463113  TIP3      4759            0.0000000000
     27746      4906  TIP3      OH2            28.2116340720       -2.6425398893      -21.6017393202  TIP3      4760            0.0000000000
     27747      4906  TIP3      H1             28.4151049658       -2.0840962973      -22.3761783607  TIP3      4760            0.0000000000
     27748      4906  TIP3      H2             27.2651052317       -2.4412109740      -21.3881544324  TIP3      4760            0.0000000000
     27749      4907  TIP3      OH2            29.2388125302       -4.8689501527      -22.6727175937  TIP3      4761            0.0000000000
     27750      4907  TIP3      H1             28.9333237695       -4.0879394670      -22.1490123542  TIP3      4761            0.0000000000
     27751      4907  TIP3      H2             28.4240238066       -5.3562282865      -22.7951440552  TIP3      4761            0.0000000000
     27752      4908  TIP3      OH2            30.1881696530       -8.1254861780      -22.0898991939  TIP3      4762            0.0000000000
     27753      4908  TIP3      H1             30.7723672406       -8.3226898820      -22.8218077778  TIP3      4762            0.0000000000
     27754      4908  TIP3      H2             30.7316859791       -7.5129443127      -21.5475816583  TIP3      4762            0.0000000000
     27755      4909  TIP3      OH2            29.4333676736        5.9652395962      -23.2688016780  TIP3      4763            0.0000000000
     27756      4909  TIP3      H1             29.4787496020        5.7694298764      -22.3205497399  TIP3      4763            0.0000000000
     27757      4909  TIP3      H2             30.2793292747        5.5865756888      -23.5498663650  TIP3      4763            0.0000000000
     27758      4910  TIP3      OH2           -19.3489923684       15.7801995802      -22.6351168393  TIP3      4764            0.0000000000
     27759      4910  TIP3      H1            -20.1324949779       15.5350741053      -22.1364611656  TIP3      4764            0.0000000000
     27760      4910  TIP3      H2            -18.7757472070       15.0171252122      -22.4166708135  TIP3      4764            0.0000000000
     27761      4911  TIP3      OH2           -13.2526890104        8.4719137337      -21.4172378510  TIP3      4765            0.0000000000
     27762      4911  TIP3      H1            -13.8359206443        8.3855755810      -20.6511487630  TIP3      4765            0.0000000000
     27763      4911  TIP3      H2            -13.5941881683        9.2457564963      -21.9214562178  TIP3      4765            0.0000000000
     27764      4912  TIP3      OH2           -12.1920043319       22.7251113593      -23.0112468132  TIP3      4766            0.0000000000
     27765      4912  TIP3      H1            -12.2314498821       22.8489457017      -22.0500716657  TIP3      4766            0.0000000000
     27766      4912  TIP3      H2            -11.5814300933       21.9593345362      -23.0104814473  TIP3      4766            0.0000000000
     27767      4913  TIP3      OH2           -17.2380361585       25.1800539853      -22.0000898899  TIP3      4767            0.0000000000
     27768      4913  TIP3      H1            -16.6214528870       24.4312145536      -22.0357714593  TIP3      4767            0.0000000000
     27769      4913  TIP3      H2            -17.6417088304       25.1019010735      -21.1233752607  TIP3      4767            0.0000000000
     27770      4914  TIP3      OH2           -24.3127363429       11.3932175524      -23.1877982015  TIP3      4768            0.0000000000
     27771      4914  TIP3      H1            -24.3665039175       11.5678461205      -22.2329650536  TIP3      4768            0.0000000000
     27772      4914  TIP3      H2            -24.7328100371       12.1682621420      -23.6160868065  TIP3      4768            0.0000000000
     27773      4915  TIP3      OH2           -17.0664872742       13.4029911185      -20.2381857614  TIP3      4769            0.0000000000
     27774      4915  TIP3      H1            -17.8807390792       13.1155667336      -19.8012785474  TIP3      4769            0.0000000000
     27775      4915  TIP3      H2            -17.3791251037       13.5869942257      -21.1523080487  TIP3      4769            0.0000000000
     27776      4916  TIP3      OH2           -18.8989633508       21.3236579104      -21.4735740552  TIP3      4770            0.0000000000
     27777      4916  TIP3      H1            -18.9632674555       21.8501094713      -20.6522002239  TIP3      4770            0.0000000000
     27778      4916  TIP3      H2            -19.0226181451       20.4423197437      -21.1008402732  TIP3      4770            0.0000000000
     27779      4917  TIP3      OH2           -28.5842179669       16.6358135931      -21.7454441376  TIP3      4771            0.0000000000
     27780      4917  TIP3      H1            -27.7930730696       16.6956329286      -21.1925904406  TIP3      4771            0.0000000000
     27781      4917  TIP3      H2            -29.1556833690       17.2406772153      -21.2414557324  TIP3      4771            0.0000000000
     27782      4918  TIP3      OH2           -16.2205264184       20.8908380480      -22.2531851148  TIP3      4772            0.0000000000
     27783      4918  TIP3      H1            -15.9989862779       20.6399106412      -21.3361889133  TIP3      4772            0.0000000000
     27784      4918  TIP3      H2            -17.1906334339       21.0120965423      -22.1741275095  TIP3      4772            0.0000000000
     27785      4919  TIP3      OH2           -22.3581497963       21.7008340539      -23.8163107877  TIP3      4773            0.0000000000
     27786      4919  TIP3      H1            -22.7309740880       21.2178960386      -24.5711283621  TIP3      4773            0.0000000000
     27787      4919  TIP3      H2            -22.6117094313       21.0942194038      -23.0962700696  TIP3      4773            0.0000000000
     27788      4920  TIP3      OH2           -22.9236180599       21.1559418086      -20.7758477267  TIP3      4774            0.0000000000
     27789      4920  TIP3      H1            -22.3902422497       21.1161398534      -19.9545621716  TIP3      4774            0.0000000000
     27790      4920  TIP3      H2            -22.9172214125       22.1104698328      -20.8794530068  TIP3      4774            0.0000000000
     27791      4921  TIP3      OH2           -25.9452676198       21.2185960320      -22.1911345643  TIP3      4775            0.0000000000
     27792      4921  TIP3      H1            -25.5954655000       21.0789996481      -21.3038705092  TIP3      4775            0.0000000000
     27793      4921  TIP3      H2            -25.3501894653       20.6145732191      -22.6852728975  TIP3      4775            0.0000000000
     27794      4922  TIP3      OH2           -20.5976050731       23.7945911871      -24.1413724196  TIP3      4776            0.0000000000
     27795      4922  TIP3      H1            -20.9745249469       22.9188693848      -23.9085493440  TIP3      4776            0.0000000000
     27796      4922  TIP3      H2            -19.6447877914       23.5749822065      -24.2380539599  TIP3      4776            0.0000000000
     27797      4923  TIP3      OH2           -15.8387671813       23.2170110575      -23.7526758960  TIP3      4777            0.0000000000
     27798      4923  TIP3      H1            -15.7593008140       22.3260044572      -23.3372958814  TIP3      4777            0.0000000000
     27799      4923  TIP3      H2            -15.0832588359       23.2244654516      -24.3726985714  TIP3      4777            0.0000000000
     27800      4924  TIP3      OH2           -24.2511977872       19.1602620306      -23.1976191950  TIP3      4778            0.0000000000
     27801      4924  TIP3      H1            -25.0199411657       18.6431218271      -23.5364912585  TIP3      4778            0.0000000000
     27802      4924  TIP3      H2            -23.6323292058       19.0683902768      -23.9453373934  TIP3      4778            0.0000000000
     27803      4925  TIP3      OH2           -19.0585296235       20.9131381280      -24.2951872126  TIP3      4779            0.0000000000
     27804      4925  TIP3      H1            -19.1948951737       21.0720855839      -23.3393446135  TIP3      4779            0.0000000000
     27805      4925  TIP3      H2            -19.1692024182       19.9374769314      -24.3747617592  TIP3      4779            0.0000000000
     27806      4926  TIP3      OH2           -13.2450448498       17.8324078147      -23.5662134085  TIP3      4780            0.0000000000
     27807      4926  TIP3      H1            -13.4009939281       17.4884268075      -24.4737397663  TIP3      4780            0.0000000000
     27808      4926  TIP3      H2            -13.1739591164       18.8037474141      -23.7383270848  TIP3      4780            0.0000000000
     27809      4927  TIP3      OH2           -29.1341592634       21.4618723294      -22.0939810166  TIP3      4781            0.0000000000
     27810      4927  TIP3      H1            -28.1962648634       21.5591894364      -21.8723898838  TIP3      4781            0.0000000000
     27811      4927  TIP3      H2            -29.1020249450       20.6949356307      -22.7077755624  TIP3      4781            0.0000000000
     27812      4928  TIP3      OH2           -11.7478664000       17.1108954398      -21.3200276146  TIP3      4782            0.0000000000
     27813      4928  TIP3      H1            -12.1188244895       17.3579354613      -22.1972661577  TIP3      4782            0.0000000000
     27814      4928  TIP3      H2            -11.4260039846       17.9611243691      -20.9800063539  TIP3      4782            0.0000000000
     27815      4929  TIP3      OH2           -13.9278572644       10.4175565901      -23.1774674748  TIP3      4783            0.0000000000
     27816      4929  TIP3      H1            -13.1858800658       10.6431913484      -23.7700267731  TIP3      4783            0.0000000000
     27817      4929  TIP3      H2            -14.6853201598       10.6825389349      -23.7331770959  TIP3      4783            0.0000000000
     27818      4930  TIP3      OH2           -26.6698751083       24.7147641114      -23.5234916727  TIP3      4784            0.0000000000
     27819      4930  TIP3      H1            -26.8466783090       24.3237502000      -22.6532665056  TIP3      4784            0.0000000000
     27820      4930  TIP3      H2            -25.8065293043       24.2776610026      -23.6905161765  TIP3      4784            0.0000000000
     27821      4931  TIP3      OH2            -0.1607813093       15.6418060301      -22.7646378256  TIP3      4785            0.0000000000
     27822      4931  TIP3      H1              0.2208672964       16.0564153345      -21.9707628599  TIP3      4785            0.0000000000
     27823      4931  TIP3      H2              0.5307837541       14.9960826998      -23.0136008584  TIP3      4785            0.0000000000
     27824      4932  TIP3      OH2             1.7224574053       16.8141678305      -20.7642290072  TIP3      4786            0.0000000000
     27825      4932  TIP3      H1              1.5357970017       17.7764408507      -20.6233361176  TIP3      4786            0.0000000000
     27826      4932  TIP3      H2              2.4643687845       16.9207264571      -21.4123334720  TIP3      4786            0.0000000000
     27827      4933  TIP3      OH2             6.4574229977       22.3539499728      -22.8067562206  TIP3      4787            0.0000000000
     27828      4933  TIP3      H1              6.7403707865       23.2326661380      -22.4927412494  TIP3      4787            0.0000000000
     27829      4933  TIP3      H2              7.0701694838       21.7509308229      -22.3416587707  TIP3      4787            0.0000000000
     27830      4934  TIP3      OH2             1.3919357782       24.9800238900      -22.7669683983  TIP3      4788            0.0000000000
     27831      4934  TIP3      H1              1.9486451870       24.1783261169      -22.7941781809  TIP3      4788            0.0000000000
     27832      4934  TIP3      H2              0.7600741337       24.7934588382      -22.0376834047  TIP3      4788            0.0000000000
     27833      4935  TIP3      OH2             3.6546349461       17.1461427978      -22.5010755788  TIP3      4789            0.0000000000
     27834      4935  TIP3      H1              3.1742192221       17.1899161524      -23.3396347701  TIP3      4789            0.0000000000
     27835      4935  TIP3      H2              4.5761302954       17.2901749801      -22.8108036231  TIP3      4789            0.0000000000
     27836      4936  TIP3      OH2            -4.9230889919       11.6023104087      -23.0563640102  TIP3      4790            0.0000000000
     27837      4936  TIP3      H1             -5.6581637758       11.2088808577      -22.5412801299  TIP3      4790            0.0000000000
     27838      4936  TIP3      H2             -5.4211177286       12.0252933066      -23.7697942583  TIP3      4790            0.0000000000
     27839      4937  TIP3      OH2            -6.1945309012       14.3506914415      -21.9996382460  TIP3      4791            0.0000000000
     27840      4937  TIP3      H1             -6.3402237424       14.2763647209      -22.9610504826  TIP3      4791            0.0000000000
     27841      4937  TIP3      H2             -5.3009605216       14.7087106247      -21.9887127192  TIP3      4791            0.0000000000
     27842      4938  TIP3      OH2             1.5502749585       11.5218538417      -22.1091371700  TIP3      4792            0.0000000000
     27843      4938  TIP3      H1              0.6253289817       11.6787409972      -21.8763109141  TIP3      4792            0.0000000000
     27844      4938  TIP3      H2              1.9644679912       12.2205542439      -21.5479138427  TIP3      4792            0.0000000000
     27845      4939  TIP3      OH2             2.3400585190       13.7331812644      -20.7314175687  TIP3      4793            0.0000000000
     27846      4939  TIP3      H1              3.2989406933       13.5943880999      -20.7472549372  TIP3      4793            0.0000000000
     27847      4939  TIP3      H2              2.2723316309       14.7054900194      -20.8035917299  TIP3      4793            0.0000000000
     27848      4940  TIP3      OH2            -9.0241825802       16.9011384763      -22.0389297743  TIP3      4794            0.0000000000
     27849      4940  TIP3      H1             -8.4550889518       17.0399272548      -21.2674937787  TIP3      4794            0.0000000000
     27850      4940  TIP3      H2             -9.9084524375       16.8177238074      -21.6428063888  TIP3      4794            0.0000000000
     27851      4941  TIP3      OH2             7.0925318996       25.1729942247      -22.3785777996  TIP3      4795            0.0000000000
     27852      4941  TIP3      H1              7.9894796150       25.5475922540      -22.4916521234  TIP3      4795            0.0000000000
     27853      4941  TIP3      H2              6.8286102352       25.5499758300      -21.5325654547  TIP3      4795            0.0000000000
     27854      4942  TIP3      OH2            -3.3066675493       21.6222042662      -23.7563813709  TIP3      4796            0.0000000000
     27855      4942  TIP3      H1             -3.0238157405       21.7478729040      -24.6685142347  TIP3      4796            0.0000000000
     27856      4942  TIP3      H2             -3.6054009776       20.7060368707      -23.8136598912  TIP3      4796            0.0000000000
     27857      4943  TIP3      OH2            -9.4014493431       13.7247206509      -22.7297957171  TIP3      4797            0.0000000000
     27858      4943  TIP3      H1             -8.6843276413       14.3132047660      -22.4552026416  TIP3      4797            0.0000000000
     27859      4943  TIP3      H2             -9.8243105539       14.2382264526      -23.4307973671  TIP3      4797            0.0000000000
     27860      4944  TIP3      OH2            -1.2332626447       23.7945036864      -23.8126304756  TIP3      4798            0.0000000000
     27861      4944  TIP3      H1             -1.6865759467       22.9848466293      -23.4972062158  TIP3      4798            0.0000000000
     27862      4944  TIP3      H2             -0.3779854594       23.4216701860      -24.1090243732  TIP3      4798            0.0000000000
     27863      4945  TIP3      OH2             3.2641062804       23.0451511887      -23.5912646644  TIP3      4799            0.0000000000
     27864      4945  TIP3      H1              3.2436748874       22.2191272522      -23.0553489603  TIP3      4799            0.0000000000
     27865      4945  TIP3      H2              4.1694930081       23.0274742615      -23.9474019020  TIP3      4799            0.0000000000
     27866      4946  TIP3      OH2            -0.6215959994       20.9485135262      -24.3042880411  TIP3      4800            0.0000000000
     27867      4946  TIP3      H1             -0.3480857717       20.9453754596      -23.3625233207  TIP3      4800            0.0000000000
     27868      4946  TIP3      H2             -0.4800214587       20.0040436881      -24.5122750657  TIP3      4800            0.0000000000
     27869      4947  TIP3      OH2            -3.6191978948       15.4885613142      -23.1350608779  TIP3      4801            0.0000000000
     27870      4947  TIP3      H1             -3.5624105700       15.9639569119      -23.9837274114  TIP3      4801            0.0000000000
     27871      4947  TIP3      H2             -2.7576129644       15.0504155156      -23.0708385637  TIP3      4801            0.0000000000
     27872      4948  TIP3      OH2             5.9828576711       17.9281246716      -23.3887869821  TIP3      4802            0.0000000000
     27873      4948  TIP3      H1              5.8808134005       17.5752038626      -24.2967197776  TIP3      4802            0.0000000000
     27874      4948  TIP3      H2              5.8363272795       18.8840239949      -23.5899156579  TIP3      4802            0.0000000000
     27875      4949  TIP3      OH2           -10.5116842195       20.7485430851      -22.1007795684  TIP3      4803            0.0000000000
     27876      4949  TIP3      H1            -10.0169974392       20.4213834505      -21.3111119228  TIP3      4803            0.0000000000
     27877      4949  TIP3      H2            -10.1609898322       20.1749549802      -22.8056004514  TIP3      4803            0.0000000000
     27878      4950  TIP3      OH2             6.9963403057       17.2573379869      -21.0543426358  TIP3      4804            0.0000000000
     27879      4950  TIP3      H1              6.5670075965       17.2807755436      -21.9440482922  TIP3      4804            0.0000000000
     27880      4950  TIP3      H2              7.1613102742       18.1979103211      -20.9354196084  TIP3      4804            0.0000000000
     27881      4951  TIP3      OH2             4.8801131664       14.2775169626      -23.1814906680  TIP3      4805            0.0000000000
     27882      4951  TIP3      H1              5.7688942738       14.3637472675      -23.5467326041  TIP3      4805            0.0000000000
     27883      4951  TIP3      H2              4.7768161620       13.2992164699      -23.1568108366  TIP3      4805            0.0000000000
     27884      4952  TIP3      OH2             4.0821285307       11.6224874318      -22.8897927038  TIP3      4806            0.0000000000
     27885      4952  TIP3      H1              4.5925739488       11.4196197970      -22.0640512135  TIP3      4806            0.0000000000
     27886      4952  TIP3      H2              3.2536056802       11.1393229074      -22.7212464432  TIP3      4806            0.0000000000
     27887      4953  TIP3      OH2            -7.7573731618       10.6314445750      -22.3873166507  TIP3      4807            0.0000000000
     27888      4953  TIP3      H1             -7.7829990675        9.8032262840      -21.8784721133  TIP3      4807            0.0000000000
     27889      4953  TIP3      H2             -8.3672642936       11.1736971526      -21.8368121716  TIP3      4807            0.0000000000
     27890      4954  TIP3      OH2            -0.8156586922       24.6898345796      -21.2407798118  TIP3      4808            0.0000000000
     27891      4954  TIP3      H1             -0.9955947372       24.5078850915      -22.1826225440  TIP3      4808            0.0000000000
     27892      4954  TIP3      H2             -1.7164156493       24.8515425918      -20.9423618596  TIP3      4808            0.0000000000
     27893      4955  TIP3      OH2            -8.6111821345       24.4259472715      -23.6209395564  TIP3      4809            0.0000000000
     27894      4955  TIP3      H1             -8.6079373136       24.4393380477      -22.6568152776  TIP3      4809            0.0000000000
     27895      4955  TIP3      H2             -7.6428290276       24.3757423897      -23.8219953191  TIP3      4809            0.0000000000
     27896      4956  TIP3      OH2            21.4455267726       17.7889148638      -22.6357989333  TIP3      4810            0.0000000000
     27897      4956  TIP3      H1             21.3016384623       18.0820623813      -23.5521038584  TIP3      4810            0.0000000000
     27898      4956  TIP3      H2             21.7492329713       16.8941548320      -22.8256301154  TIP3      4810            0.0000000000
     27899      4957  TIP3      OH2            17.1317550373       10.9392852198      -23.1496825295  TIP3      4811            0.0000000000
     27900      4957  TIP3      H1             16.6630482264       10.8054901488      -22.2856156134  TIP3      4811            0.0000000000
     27901      4957  TIP3      H2             16.5046602981       10.4524676519      -23.7401834532  TIP3      4811            0.0000000000
     27902      4958  TIP3      OH2            13.3784380095       11.5647787358      -23.0802167361  TIP3      4812            0.0000000000
     27903      4958  TIP3      H1             12.5541601342       11.2060012474      -22.6855905094  TIP3      4812            0.0000000000
     27904      4958  TIP3      H2             12.9774858295       12.1651989487      -23.7477022320  TIP3      4812            0.0000000000
     27905      4959  TIP3      OH2            12.5901966032       14.7266229285      -22.2474044106  TIP3      4813            0.0000000000
     27906      4959  TIP3      H1             12.7333425079       14.0599939567      -22.9381134592  TIP3      4813            0.0000000000
     27907      4959  TIP3      H2             13.4828482090       15.1230143753      -22.2577439848  TIP3      4813            0.0000000000
     27908      4960  TIP3      OH2            19.3958859798       12.0885088194      -22.5068621556  TIP3      4814            0.0000000000
     27909      4960  TIP3      H1             18.4863980399       11.7698347717      -22.7255998163  TIP3      4814            0.0000000000
     27910      4960  TIP3      H2             19.5202185444       11.7248265120      -21.6220499884  TIP3      4814            0.0000000000
     27911      4961  TIP3      OH2            17.7894375330       20.5438314468      -21.6721683938  TIP3      4815            0.0000000000
     27912      4961  TIP3      H1             17.8436949643       21.1143279886      -20.8763051207  TIP3      4815            0.0000000000
     27913      4961  TIP3      H2             17.9549617219       19.6757922770      -21.2225480079  TIP3      4815            0.0000000000
     27914      4962  TIP3      OH2             9.6073689665       16.9476390203      -21.7235818466  TIP3      4816            0.0000000000
     27915      4962  TIP3      H1              8.7693881887       17.2968533943      -22.0669486169  TIP3      4816            0.0000000000
     27916      4962  TIP3      H2              9.4120265392       15.9915969744      -21.7154485919  TIP3      4816            0.0000000000
     27917      4963  TIP3      OH2            15.4802078202       22.3157046809      -24.2160666894  TIP3      4817            0.0000000000
     27918      4963  TIP3      H1             15.1983333729       21.5869034785      -24.7748369283  TIP3      4817            0.0000000000
     27919      4963  TIP3      H2             15.2472398196       21.9646732431      -23.3097248550  TIP3      4817            0.0000000000
     27920      4964  TIP3      OH2            14.9844563179       21.4572671221      -21.7649509043  TIP3      4818            0.0000000000
     27921      4964  TIP3      H1             15.6599317699       20.8451741337      -21.4227272796  TIP3      4818            0.0000000000
     27922      4964  TIP3      H2             15.0293866617       22.1892132283      -21.1286640284  TIP3      4818            0.0000000000
     27923      4965  TIP3      OH2             9.6107571029       13.9018166579      -22.7273505427  TIP3      4819            0.0000000000
     27924      4965  TIP3      H1             10.5522484168       13.7538084546      -22.5631246994  TIP3      4819            0.0000000000
     27925      4965  TIP3      H2              9.1988074713       13.1036649066      -22.3461343943  TIP3      4819            0.0000000000
     27926      4966  TIP3      OH2            17.9085160681       23.5953570665      -23.6260123077  TIP3      4820            0.0000000000
     27927      4966  TIP3      H1             17.0994365215       23.0294172291      -23.6588676338  TIP3      4820            0.0000000000
     27928      4966  TIP3      H2             18.5217987029       23.1045900268      -24.1935835361  TIP3      4820            0.0000000000
     27929      4967  TIP3      OH2            12.7260931654       19.0295983271      -24.3891325966  TIP3      4821            0.0000000000
     27930      4967  TIP3      H1             12.5362838553       18.5839762950      -23.5511510779  TIP3      4821            0.0000000000
     27931      4967  TIP3      H2             13.6659898390       18.8258362018      -24.5435738204  TIP3      4821            0.0000000000
     27932      4968  TIP3      OH2            18.5200033473       20.5852437052      -24.2286936094  TIP3      4822            0.0000000000
     27933      4968  TIP3      H1             18.1680966016       20.6399617018      -23.3070990880  TIP3      4822            0.0000000000
     27934      4968  TIP3      H2             18.4138919371       19.6176973474      -24.3545544097  TIP3      4822            0.0000000000
     27935      4969  TIP3      OH2            15.1472391390       15.7204580664      -23.1506781383  TIP3      4823            0.0000000000
     27936      4969  TIP3      H1             14.8211522330       16.2236271130      -23.9151019324  TIP3      4823            0.0000000000
     27937      4969  TIP3      H2             16.0657250860       16.0299156161      -23.0477254693  TIP3      4823            0.0000000000
     27938      4970  TIP3      OH2            24.5864959560       17.8074324568      -23.6928260536  TIP3      4824            0.0000000000
     27939      4970  TIP3      H1             24.2631753088       17.4114057688      -24.5282707057  TIP3      4824            0.0000000000
     27940      4970  TIP3      H2             25.5515905256       17.8867104369      -23.8551735917  TIP3      4824            0.0000000000
     27941      4971  TIP3      OH2            14.7257668518       26.5391915873      -22.2878918892  TIP3      4825            0.0000000000
     27942      4971  TIP3      H1             15.6933929547       26.5635720879      -22.3407659673  TIP3      4825            0.0000000000
     27943      4971  TIP3      H2             14.4774370399       27.0468279749      -23.0817192348  TIP3      4825            0.0000000000
     27944      4972  TIP3      OH2             8.5617887583       20.6310856912      -22.1640963728  TIP3      4826            0.0000000000
     27945      4972  TIP3      H1              9.4886720029       20.8614221952      -22.2864943961  TIP3      4826            0.0000000000
     27946      4972  TIP3      H2              8.3408728677       20.2236238975      -23.0230356356  TIP3      4826            0.0000000000
     27947      4973  TIP3      OH2            23.5708808909       14.3036370226      -23.1665835004  TIP3      4827            0.0000000000
     27948      4973  TIP3      H1             24.2943821910       14.3403312101      -23.8022203048  TIP3      4827            0.0000000000
     27949      4973  TIP3      H2             23.5549933139       13.3368575962      -22.9879927490  TIP3      4827            0.0000000000
     27950      4974  TIP3      OH2            23.3028155412       11.5906806214      -23.2625644203  TIP3      4828            0.0000000000
     27951      4974  TIP3      H1             23.1150661759       11.0101186504      -22.5180804718  TIP3      4828            0.0000000000
     27952      4974  TIP3      H2             22.6173523898       11.3097331641      -23.8960585185  TIP3      4828            0.0000000000
     27953      4975  TIP3      OH2            24.8659798979        9.0998317651      -21.5044429038  TIP3      4829            0.0000000000
     27954      4975  TIP3      H1             25.2701569584        9.3698983583      -22.3429395414  TIP3      4829            0.0000000000
     27955      4975  TIP3      H2             24.7242073394        9.9521754550      -21.0546032885  TIP3      4829            0.0000000000
     27956      4976  TIP3      OH2            11.1877487927       10.5755313749      -22.0302487904  TIP3      4830            0.0000000000
     27957      4976  TIP3      H1             11.0254307289        9.7012624100      -22.4166531706  TIP3      4830            0.0000000000
     27958      4976  TIP3      H2             11.7474948405       10.3848549299      -21.2514341141  TIP3      4830            0.0000000000
     27959      4977  TIP3      OH2            17.7451801260       26.1777181191      -22.2388773230  TIP3      4831            0.0000000000
     27960      4977  TIP3      H1             17.5089175777       26.1448321184      -21.2905472303  TIP3      4831            0.0000000000
     27961      4977  TIP3      H2             18.0006395001       25.2463106447      -22.3831172854  TIP3      4831            0.0000000000
     27962      4978  TIP3      OH2            10.3376971456       25.1324857503      -22.9340347060  TIP3      4832            0.0000000000
     27963      4978  TIP3      H1             10.3670296698       25.3108523783      -21.9789636584  TIP3      4832            0.0000000000
     27964      4978  TIP3      H2             11.1648518763       24.6147491196      -23.0222708604  TIP3      4832            0.0000000000
     27965      4979  TIP3      OH2            26.2153314292       12.0347933914      -21.4355195313  TIP3      4833            0.0000000000
     27966      4979  TIP3      H1             26.5984428718       12.7772876692      -20.9234863151  TIP3      4833            0.0000000000
     27967      4979  TIP3      H2             25.5247015097       11.8205343190      -20.7627301194  TIP3      4833            0.0000000000
     27968      4980  TIP3      OH2            29.4961098947       19.3063976806      -20.3952208400  TIP3      4834            0.0000000000
     27969      4980  TIP3      H1             30.0292747721       18.6753079902      -19.8645794105  TIP3      4834            0.0000000000
     27970      4980  TIP3      H2             29.8375344947       20.1323134003      -20.0145544561  TIP3      4834            0.0000000000
     27971      4981  TIP3      OH2            28.9365757850       13.7909273285      -22.6069125990  TIP3      4835            0.0000000000
     27972      4981  TIP3      H1             28.9996477770       14.4575784022      -21.9032683662  TIP3      4835            0.0000000000
     27973      4981  TIP3      H2             28.0400960907       13.4386669612      -22.4743588968  TIP3      4835            0.0000000000
     27974      4982  TIP3      OH2            28.1632466514       20.9021080330      -23.3288074543  TIP3      4836            0.0000000000
     27975      4982  TIP3      H1             28.7608001632       20.5324339065      -22.6476321328  TIP3      4836            0.0000000000
     27976      4982  TIP3      H2             27.6790540636       20.1076934542      -23.6340370659  TIP3      4836            0.0000000000
     27977      4983  TIP3      OH2            27.5971380753        8.5238826358      -20.4078909711  TIP3      4837            0.0000000000
     27978      4983  TIP3      H1             27.4429006028        8.6796440256      -21.3570897247  TIP3      4837            0.0000000000
     27979      4983  TIP3      H2             26.8668288551        9.0412882590      -20.0318506461  TIP3      4837            0.0000000000
     27980      4984  TIP3      OH2            29.7364491166        9.4438142542      -23.5864770440  TIP3      4838            0.0000000000
     27981      4984  TIP3      H1             29.9373905152        8.4991519846      -23.5270368194  TIP3      4838            0.0000000000
     27982      4984  TIP3      H2             29.6740968504        9.6772056706      -22.6556850050  TIP3      4838            0.0000000000
     27983      4985  TIP3      OH2           -20.1899637426       29.6233132278      -22.8758913762  TIP3      4839            0.0000000000
     27984      4985  TIP3      H1            -20.4097028121       30.4868430669      -23.2600082541  TIP3      4839            0.0000000000
     27985      4985  TIP3      H2            -20.1950323236       29.0717833588      -23.6661100540  TIP3      4839            0.0000000000
     27986      4986  TIP3      OH2           -28.5667976734       27.1739850747      -21.1826459048  TIP3      4840            0.0000000000
     27987      4986  TIP3      H1            -27.8856615127       27.6151811091      -21.7302105626  TIP3      4840            0.0000000000
     27988      4986  TIP3      H2            -28.1786167417       27.3263289342      -20.3180069349  TIP3      4840            0.0000000000
     27989      4987  TIP3      OH2           -26.7126494125       29.0276242875      -22.1010439980  TIP3      4841            0.0000000000
     27990      4987  TIP3      H1            -26.3008100064       28.8418649142      -22.9674773379  TIP3      4841            0.0000000000
     27991      4987  TIP3      H2            -26.4090460809       29.9292854042      -21.9069394445  TIP3      4841            0.0000000000
     27992      4988  TIP3      OH2            -1.2297073866       29.3954960879      -22.3965613739  TIP3      4842            0.0000000000
     27993      4988  TIP3      H1             -1.9499524506       29.6340464120      -21.8081322876  TIP3      4842            0.0000000000
     27994      4988  TIP3      H2             -1.7786883190       28.9150229321      -23.0411646150  TIP3      4842            0.0000000000
     27995      4989  TIP3      OH2            -7.2198029725       29.5221098991      -22.5859017669  TIP3      4843            0.0000000000
     27996      4989  TIP3      H1             -7.2760719225       28.6104227046      -22.9186963848  TIP3      4843            0.0000000000
     27997      4989  TIP3      H2             -6.9103025550       29.4054331814      -21.6774864944  TIP3      4843            0.0000000000
     27998      4990  TIP3      OH2            23.7182313580       26.4088064060      -21.5712446409  TIP3      4844            0.0000000000
     27999      4990  TIP3      H1             23.1557485459       27.1573845556      -21.3324531509  TIP3      4844            0.0000000000
     28000      4990  TIP3      H2             24.5527380983       26.8938945403      -21.7625137884  TIP3      4844            0.0000000000
     28001      4991  TIP3      OH2            25.7727763424       28.1494696528      -21.8535227508  TIP3      4845            0.0000000000
     28002      4991  TIP3      H1             26.2190527594       27.6989087193      -22.6008649254  TIP3      4845            0.0000000000
     28003      4991  TIP3      H2             25.8968616099       29.0566722513      -22.1755621449  TIP3      4845            0.0000000000
     28004      4992  TIP3      OH2             9.0748217997       27.8026545471      -21.6802409120  TIP3      4846            0.0000000000
     28005      4992  TIP3      H1              9.8395651584       28.1123644558      -22.2008742703  TIP3      4846            0.0000000000
     28006      4992  TIP3      H2              9.0721869399       28.4764718369      -20.9818361757  TIP3      4846            0.0000000000
     28007      4993  TIP3      OH2            11.3555962773       28.8409219092      -22.8890865692  TIP3      4847            0.0000000000
     28008      4993  TIP3      H1             11.3011822796       28.2143659007      -23.6428962911  TIP3      4847            0.0000000000
     28009      4993  TIP3      H2             12.2501488777       28.6390690708      -22.5860258297  TIP3      4847            0.0000000000
     28010      4994  TIP3      OH2            29.3054654356       28.3504316844      -22.9606569733  TIP3      4848            0.0000000000
     28011      4994  TIP3      H1             30.2592269960       28.1760681907      -22.9404562795  TIP3      4848            0.0000000000
     28012      4994  TIP3      H2             29.2428620730       29.2526133403      -23.3123774233  TIP3      4848            0.0000000000
     28013      4995  SOD       SOD             2.6744817494        1.6377867437      -29.1222305640  IONS      1               1.0000000000
     28014      4996  SOD       SOD             6.4171866412       -6.5330904253       29.7521539740  IONS      2               1.0000000000
     28015      4997  SOD       SOD            -8.9175756924       28.9861192764      -38.1425543898  IONS      3               1.0000000000
     28016      4998  SOD       SOD           -26.8987356413        9.0134905807      -29.5293528944  IONS      4               1.0000000000
     28017      4999  SOD       SOD           -20.7450718495       -8.8758826749      -26.0225062311  IONS      5               1.0000000000
     28018      5000  SOD       SOD           -23.3203771918       24.3129466726      -27.1113338111  IONS      6               1.0000000000
     28019      5001  SOD       SOD            23.4109231034       -7.7988233810       26.9287462487  IONS      7               1.0000000000
     28020      5002  SOD       SOD           -11.0849338154      -18.6396938475       26.7780006880  IONS      8               1.0000000000
     28021      5003  SOD       SOD           -27.7783243165      -18.3263305831      -31.2575368861  IONS      9               1.0000000000
     28022      5004  SOD       SOD             7.6048026378      -10.7905934890       40.2325679723  IONS      10              1.0000000000
     28023      5005  SOD       SOD             3.9322652783        6.6672123335      -21.6173770555  IONS      11              1.0000000000
     28024      5006  SOD       SOD           -10.6865145319      -16.4840257416      -28.1506609766  IONS      12              1.0000000000
     28025      5007  CLA       CLA            -6.0951310210        7.7647067718       22.8179830061  IONS      13             -1.0000000000
     28026      5008  CLA       CLA           -27.0957691267       11.1366569175       27.6208330733  IONS      14             -1.0000000000
     28027      5009  CLA       CLA             0.2942805874       -4.4310314891       34.3063936931  IONS      15             -1.0000000000
     28028      5010  CLA       CLA             3.4448029478       27.3572158585       40.5272593051  IONS      16             -1.0000000000
     28029      5011  CLA       CLA            18.7184207290      -25.8036881875       27.3252683325  IONS      17             -1.0000000000
     28030      5012  CLA       CLA            -2.7271862844      -17.8273110662       40.4673255837  IONS      18             -1.0000000000
     28031      5013  CLA       CLA             8.9776100155      -17.2986292162       30.8524379556  IONS      19             -1.0000000000
     28032      5014  CLA       CLA            16.2332880957       18.8953110160      -42.1641770988  IONS      20             -1.0000000000
     28033      5015  CLA       CLA           -26.5612631279       17.5690506284      -24.9192554035  IONS      21             -1.0000000000
     28034      5016  CLA       CLA            -2.3534009654        5.8688991138      -28.1424955037  IONS      22             -1.0000000000
     28035      5017  CLA       CLA            -7.5018690818      -21.9534272202      -33.5634575119  IONS      23             -1.0000000000
     28036      5018  CLA       CLA           -22.6617054867       10.4637226686      -40.7640935718  IONS      24             -1.0000000000
     28037      5019  CLA       CLA           -28.0533782256        3.3433027640      -34.4688537908  IONS      25             -1.0000000000
     28038      5020  CLA       CLA            -3.7932869743       -7.8604241711       31.0173452706  IONS      26             -1.0000000000
     28039      5021  CLA       CLA            15.2522466439        5.6037112132       33.8529155339  IONS      27             -1.0000000000
     28040      5022  CLA       CLA            -0.0199749651      -25.7669611561      -35.2620940720  IONS      28             -1.0000000000
     28041      5023  CLA       CLA           -10.8827209221        7.1542647396      -27.2113381271  IONS      29             -1.0000000000
     28042      5024  CLA       CLA            25.0513881927        6.4955886436       38.2193347003  IONS      30             -1.0000000000
     28043      5025  CLA       CLA            29.9114681458       -1.3109328372      -23.8283310005  IONS      31             -1.0000000000
     28044      5026  CLA       CLA           -25.0794576917      -18.3981447026      -37.9110871090  IONS      32             -1.0000000000
     28045      5027  CLA       CLA           -26.5635878815      -22.0780038136      -33.4142195423  IONS      33             -1.0000000000
     28046      5028  CLA       CLA            27.5381267794       -4.3264158947       32.8807526154  IONS      34             -1.0000000000
     28047      5029  CLA       CLA           -24.4000824533        9.6294390488       38.6081399513  IONS      35             -1.0000000000
     28048      5030  CLA       CLA            -7.4793062544       -3.1949295460       29.9427467343  IONS      36             -1.0000000000
